     208
 i =    10000, time =     5000.000, E =     -1010.1043666500
  C         0.3764779974       10.2274790356        5.0911463106         0.0006109633       -0.0002178835       -0.0000301922
  C         0.3176154321       10.5543460951       10.7303888612        -0.0000565008       -0.0002186324        0.0000994204
  C         0.2441124344        4.3746611613        2.1035376006        -0.0000714310        0.0001452797       -0.0002084985
  C         0.2412137452        4.3911358411        7.8234003868         0.0000104542        0.0003788239        0.0002625857
  C         1.6677265741       10.9760816016        4.9415865668         0.0002470587        0.0000189423       -0.0000864965
  C         1.2711986870       11.6530658935       10.2470890060         0.0001703099        0.0002703554       -0.0001023641
  C         1.5104272649        1.0859475832        1.6351215020        -0.0000463039        0.0000485580        0.0000021470
  C         1.7530675210        1.2788803015        7.6258037455         0.0000103467       -0.0004386462       -0.0001669131
  C         2.8408047083        7.7811425835        5.3388633415         0.0001365974        0.0000017888        0.0000137409
  C         2.4386520288        7.9916938451       10.9754703751        -0.0000727897       -0.0002798416       -0.0003473613
  C         2.6298148038        1.9813319702        2.1892456034         0.0006269959       -0.0002211975        0.0001055570
  C         3.0124180621        2.0719703281        7.9436102056        -0.0000763734       -0.0000447549       -0.0002947860
  C         3.1079362661        8.1325528770        0.7987464519        -0.0000051102        0.0000114767        0.0000142615
  C         3.2872721059        7.9685930616        6.7927422803        -0.0002181121       -0.0001262211       -0.0002385914
  C         3.2057951412        1.7485555904        3.6299327169         0.0000996131       -0.0000303779        0.0002262492
  C         3.5769693023        1.7505413179        9.4297456117         0.0000715905        0.0004263282       -0.0000784340
  C         4.3576135823        7.2936798992        0.9749457858         0.0001194809        0.0002448444        0.0000171858
  C         4.4980856106        6.9929192335        7.0025577032        -0.0004652324       -0.0001297774       -0.0001061104
  C         4.8645174806        5.0040299341        3.9117152708         0.0001867039        0.0001026604        0.0000095710
  C         4.5563152304        5.0789649187        9.6549336235        -0.0001454448       -0.0002277078        0.0002934185
  C         5.7687325176       10.7466672685        0.8297630888        -0.0002598036       -0.0000120004       -0.0006329601
  C         5.6966481636       10.3137687517        6.6003474266         0.0004323911       -0.0001302786        0.0002985800
  C         6.0868351092        4.1032505784        3.5856600737        -0.0001514709        0.0002319152        0.0001185061
  C         5.7974436263        4.2730736984        9.3469658459         0.0000991714        0.0004954783        0.0000625740
  C         6.5241524133       10.1555489565        5.2549895748         0.0002138231        0.0001203649        0.0000616894
  C         6.1759049599       10.3165302061       10.9468493594         0.0001746981        0.0003747606       -0.0001805984
  C         6.4993064241        4.4554159804        2.1382732869        -0.0000907310        0.0002928508        0.0001562727
  C         6.3067656832        4.4871647159        7.8919375065         0.0000660690       -0.0000384457        0.0000366716
  C         7.7790341660       10.9591234969        4.8966582440         0.0001157935       -0.0004382202       -0.0003406428
  C         7.3651316822       11.0804691796       10.5318025970         0.0001147827       -0.0003353010        0.0002513001
  C         7.4567506474        1.4099620420        1.6806357949        -0.0002426007       -0.0003279189       -0.0004573505
  C         7.5261492647        0.8661627287        7.6919099560         0.0006155743        0.0002094728       -0.0002840912
  C         8.8653221923        7.9001578700        5.1233715916         0.0001203535       -0.0003991617        0.0005987715
  C         8.6978067886        8.0452903657       10.8908313454        -0.0000038205       -0.0001038364       -0.0001997513
  C         8.9052117518        1.8841650547        2.0493790654         0.0004958700       -0.0000617484        0.0003334207
  C         8.5997762701        1.8712896193        7.8785221956        -0.0003019991        0.0000502958       -0.0000753942
  C         9.2539528315        8.2325642235        0.7631200992        -0.0002261752       -0.0001656997       -0.0001139558
  C         9.3154653966        8.1302803239        6.6993310779        -0.0002450018       -0.0001581123        0.0000011173
  C         9.3966609100        1.4872192983        3.4469787808        -0.0002962929       -0.0002089950       -0.0002145476
  C         9.0752760793        1.8721472405        9.3715667195         0.0001644957        0.0002683996       -0.0001338723
  C        10.4076655545        7.2924325732        1.0294660010         0.0000494309        0.0003774053        0.0001928444
  C        10.5579653418        7.3575299147        7.1898963472        -0.0003661003       -0.0004943971       -0.0000272228
  C        10.7673895101        5.2628454207        3.8112004110        -0.0000774954       -0.0000033747       -0.0003084421
  C        10.7074544866        5.0268762804        9.6997646758        -0.0000856345        0.0000520372        0.0001447695
  C        11.9397277468       10.7549485269        0.6644218650        -0.0001755271       -0.0000357850        0.0001364059
  C        11.8215544897       10.5358316919        6.5193714518         0.0000014506        0.0002167574       -0.0000252760
  C        11.7970288763        4.1725741804        3.5784447764         0.0000877004        0.0000787904        0.0000439977
  C        11.9825654204        4.2397842387        9.3186821230         0.0000539696        0.0002604975        0.0001707323
  H         0.5237271856        9.1378137635        5.0336444571        -0.0006284001       -0.0012888408        0.0005185011
  H         0.6718943221        9.5541437882       10.5687588808        -0.0004082747       -0.0001621186        0.0001732512
  H         0.2928129300        4.2719463976        5.5184053334         0.0001533522        0.0003658522       -0.0002740671
  H         0.7389066750        4.3230359023       11.2375862096        -0.0000972518        0.0004426354        0.0004064390
  H         0.8041184458        0.8857960955        2.4355134738        -0.0007999308       -0.0002117888        0.0009362240
  H         0.9762779848        1.2927064959        8.3834558059        -0.0014605477       -0.0005542230       -0.0009296283
  H         1.5838007464       12.0873124926        4.9222600362        -0.0004608266        0.0014113808        0.0007864765
  H         0.9509687123       12.6595199426       10.3170408361        -0.0010231904        0.0002180836        0.0001427657
  H         1.1621564011        5.3448072048        4.6491983207         0.0003836157       -0.0000702194       -0.0001683775
  H         1.3528557556        5.5674872088       10.2790191743         0.0007047721        0.0009446047        0.0010357814
  H         1.0728406379        1.4713368241        0.7450603532        -0.0012573392       -0.0003511192        0.0005051683
  H         1.2651364694        1.6153818420        6.7012697026         0.0002722732       -0.0017002920        0.0003813353
  H         1.3252392628        8.6337092930        1.7219083944        -0.0007083256       -0.0003967575       -0.0001401993
  H         1.3165243577        8.3241981752        7.4726631642        -0.0000130372        0.0003977920        0.0016109834
  H         1.4340222822        3.6289437094        4.5310269361         0.0000092645        0.0007547499       -0.0012185681
  H         1.8700527293        3.9468658319        9.9862806750        -0.0000074011       -0.0005830276        0.0002758891
  H         2.2434880116       10.5762957166        4.0282914924         0.0005528286        0.0008925623       -0.0001572368
  H         1.5454975239       11.4819037286        9.1911072938        -0.0000467298        0.0008700483       -0.0008852940
  H         1.6334771955        6.9220493114        1.8486169757         0.0010056268        0.0012765124       -0.0007012111
  H         1.7982945214        6.6800882631        7.7007583191         0.0006218007       -0.0001806425       -0.0001210438
  H         2.0363937476        0.1818635039        1.3688928390        -0.0003528708       -0.0005385434        0.0001500395
  H         2.0496295651        0.2028720113        7.5044892450        -0.0005594091       -0.0008524944        0.0007910057
  H         2.2845151686       10.7353688043        5.7679337521         0.0011962658        0.0010253292        0.0000522625
  H         2.2117852417       11.4944016516       10.7828502600        -0.0007782805        0.0008575411        0.0003710303
  H         2.4230049266        8.0156035771        2.7727430230         0.0003459344        0.0002066403        0.0005411452
  H         2.5130240024        7.9980894012        8.6600916392        -0.0006144649       -0.0003938448       -0.0002409518
  H         2.3680415576        3.0560302888        2.2076549443         0.0007974438       -0.0003877252       -0.0003520954
  H         2.8485203187        3.1319851361        7.8246904531         0.0003394758        0.0002593077       -0.0006033233
  H         3.4400203119        9.1704474560        0.8103844849        -0.0004494293        0.0001734920        0.0008532324
  H         3.5852215156        9.0051982569        6.9025559145        -0.0008049569       -0.0008510638        0.0013718847
  H         3.5675575640        2.1753686193        0.2053204589        -0.0004306980       -0.0000679996        0.0005777069
  H         3.2418908852        1.7910428347        5.9489162037        -0.0008368143        0.0012414556       -0.0010750993
  H         4.1187300223        4.8261606861        3.1299052051         0.0002458987       -0.0003576095       -0.0000143194
  H         3.7534870260        4.8243751458        8.9613754725         0.0008127511        0.0005418057       -0.0009445539
  H         4.1334670524        6.2044166046        1.1790013013         0.0002123606       -0.0009669572        0.0014718973
  H         4.2573892436        5.9068227623        6.9907490015        -0.0005196712       -0.0004643908        0.0000804054
  H         4.2136910749        1.0419348749        1.2349557058        -0.0009813980       -0.0001366084       -0.0005641379
  H         4.2082824245        0.6605318909        6.7609697942        -0.0010759343        0.0012124498       -0.0006026245
  H         4.6332828503        4.8939271927        5.0045590952        -0.0003766319       -0.0008422795        0.0003408004
  H         4.0741537652        4.8662343983       10.6413343476         0.0008580501       -0.0002545753       -0.0005271860
  H         4.7359772967        9.8972637334        4.2115317486        -0.0001588136       -0.0009361174       -0.0005589533
  H         4.1829690545        9.7462811260       10.2044757562         0.0008220878       -0.0004314481       -0.0000697552
  H         4.5372964792        2.7241267594        1.5472808438        -0.0010440577       -0.0001482323        0.0006952194
  H         4.6938418663        2.3783516612        6.6480574764         0.0005914518       -0.0001930998       -0.0009370891
  H         4.8717142733        7.6727357227        1.8950362686        -0.0002216872        0.0003047196       -0.0012112566
  H         4.8847443298        7.2706031296        7.9786059143        -0.0002981760       -0.0000057797       -0.0001647689
  H         5.0421126712       11.4560265014        4.1330534261        -0.0002895050        0.0004217854       -0.0011873553
  H         4.6547659477       11.3997761340        9.9846382969        -0.0009999993       -0.0018764769        0.0000569984
  H         5.1302665978        6.0233810487        3.6710434511         0.0002299967        0.0000640381       -0.0005617919
  H         4.5918904774        6.2007167121        9.6339352331         0.0004561160       -0.0002452151       -0.0000332454
  H         4.9603383229        7.4325399015        0.1270360632         0.0008970126        0.0001569575        0.0007369137
  H         5.2153036395        7.2743980117        6.2805802733        -0.0007253016       -0.0007844605        0.0001197014
  H         5.9431882215       10.4417657188        3.1146119513         0.0003621298       -0.0000627644        0.0000033761
  H         5.3867025325       10.0601610256        9.0342278607        -0.0007256940        0.0009705116       -0.0002966504
  H         5.7812744545        3.0630976022        3.7057630674        -0.0007390793        0.0003625863       -0.0005001221
  H         5.6882449680        3.1923631351        9.4912589290         0.0004322283       -0.0004423425       -0.0006392005
  H         6.7133058533        9.0558156849        5.1497496463        -0.0005663065       -0.0013604153        0.0000672765
  H         6.4484815632        9.2782562647       10.9369812494         0.0001992792        0.0000834093       -0.0006358265
  H         6.8656887572        4.2554759358        5.5737725509        -0.0012982584        0.0002221916       -0.0004297821
  H         6.6083335990        4.6817421654       11.2575547326        -0.0004214424        0.0001661190       -0.0011864518
  H         6.7956829470        1.8349153670        2.4427998541         0.0005367788       -0.0011432717       -0.0003224521
  H         6.7114238775        0.9935196685        8.3614101531        -0.0009696566       -0.0003819900       -0.0000700674
  H         7.5949889137       12.0228086748        4.9266835320         0.0006829154       -0.0001069182       -0.0008873726
  H         6.9731167131       12.0282561859       10.1835520555         0.0008385832        0.0001632653        0.0000330863
  H         7.5242350871        5.3641194218        4.4522421198        -0.0010271915       -0.0002703448       -0.0007470709
  H         7.1235390644        5.7004117882       10.0143656157         0.0004382580        0.0008282506        0.0006614203
  H         7.0203753027        1.6689794917        0.6663238054        -0.0000353789       -0.0004014523        0.0014044966
  H         7.0508106945        0.8613548346        6.6907915885         0.0003301641       -0.0000950751        0.0000428773
  H         7.4762275768        8.6641475263        1.7753829864         0.0016611905        0.0002516035        0.0006539881
  H         7.2622960720        8.4532974712        7.4933415165         0.0003016866        0.0004129903        0.0010735171
  H         8.0955088913        3.7713186595        4.4335279980        -0.0008915883       -0.0003724557        0.0001832539
  H         7.6911575465        4.0593416985       10.1964894953        -0.0007701595        0.0010968364       -0.0001348876
  H         8.0837305308       10.7895145583        3.8921639497         0.0004024072       -0.0004267358        0.0008629851
  H         7.8956860369       10.6026891115        9.7201939913        -0.0002634225       -0.0010676961       -0.0005752233
  H         7.9978156871        6.9383985967        1.7437998849         0.0001462066       -0.0000188926        0.0006534763
  H         7.8638589227        6.8657537137        7.7580955552        -0.0005573531        0.0001411804        0.0014754899
  H         7.3396129576        0.3208583801        1.7701628116         0.0009915920       -0.0001184819        0.0002265570
  H         7.9569792522       -0.1191785576        7.8233367218        -0.0002095843        0.0000068846        0.0006993811
  H         8.5888906030       10.7059899973        5.6409360823        -0.0011579430       -0.0013369422        0.0008657651
  H         8.1150794237       11.2475628430       11.2559254630        -0.0000550555       -0.0002782046       -0.0002513219
  H         8.6978746827        8.0749519266        2.7371956522         0.0010549929       -0.0010824698       -0.0000054328
  H         8.4612113615        8.1980837981        8.5934365132        -0.0011147255        0.0001593888       -0.0005063577
  H         8.8967658910        2.9383727880        1.9921759130        -0.0008721959        0.0005814938        0.0000416645
  H         8.1232584148        2.8502792179        7.5833862765        -0.0007006293        0.0002937214       -0.0007312397
  H         9.5896856705        9.2672683880        1.0010428166         0.0003617272        0.0001836756        0.0005681111
  H         9.5695302690        9.1317601197        6.7776590026        -0.0001473817       -0.0000528830       -0.0000864512
  H         9.4743290271        1.5747751193       -0.0404494616        -0.0001116069       -0.0001850290       -0.0002998887
  H         9.2942307425        1.5711103175        5.7950262470        -0.0009897292        0.0002938133       -0.0005722934
  H         9.8897085558        5.0857923490        3.1910654374        -0.0003198932       -0.0014650006        0.0007800902
  H         9.8288646680        4.6878523630        9.1414305917         0.0012489129        0.0004796421        0.0007576556
  H        10.2527913367        6.2503302100        0.6848002774         0.0015876347       -0.0009588418        0.0014308943
  H        10.4174448956        6.2861472398        7.3062905791         0.0004738214       -0.0016476980       -0.0006519064
  H        10.4411280829        0.7027289158        1.1064633891        -0.0004841765       -0.0001467319       -0.0004825221
  H        10.1559972798        0.6709991754        7.0791789600         0.0014021437       -0.0006691563       -0.0006209982
  H        10.5740783631        5.1792723028        4.8353302076        -0.0007867085       -0.0016489621       -0.0003915910
  H        10.5002128144        4.8510104647       10.7601509746         0.0006806558        0.0012136297        0.0012578317
  H        10.7890916527        9.8214651619        4.0595073216        -0.0001147304       -0.0010188217        0.0001912516
  H        10.4630589883        9.9759170601       10.1278277879         0.0006662222        0.0006064622        0.0005822982
  H        10.5495811413        2.4191044419        0.9555606442        -0.0002032104        0.0008140827        0.0002937557
  H        10.4048352236        2.4210451845        6.8939682620         0.0014546215        0.0005072354       -0.0001752138
  H        10.7207056397        7.2535104440        2.0678679201        -0.0005183016       -0.0014836653       -0.0014251960
  H        10.9372542325        7.8220574739        8.1275727175        -0.0005571666        0.0004368236       -0.0006630552
  H        11.1761710633       11.5522848350        4.0133188480        -0.0008913318        0.0000310153       -0.0005785625
  H        10.7492407683       11.5662747725        9.7859808661         0.0004986018       -0.0014988370       -0.0002400639
  H        11.1558453696        6.2551795675        3.6907197625        -0.0000783385        0.0011208847        0.0005983336
  H        10.6913038648        6.1443464884        9.6189997608        -0.0002450353        0.0009726255        0.0004685693
  H        11.2557132730        7.6258711285        0.2487267788        -0.0015819552       -0.0001975615       -0.0001260323
  H        11.3739273231        7.4617931879        6.4790309485        -0.0002514751       -0.0005522216       -0.0007519630
  H        11.9615881726       10.4308406594        3.0526858861        -0.0005850706       -0.0004371086       -0.0006995758
  H        11.5410963632       10.3514041281        8.8368874382        -0.0002438629        0.0008821529       -0.0002694938
  H        11.3757410656        3.2001788014        3.8765789588         0.0001986600        0.0007424378       -0.0000623062
  H        11.6589665036        3.2369821686        9.6601813359         0.0002728571        0.0011871908       -0.0008860502
  N         0.7658634134        4.3857232575        4.5970528982        -0.0000986630       -0.0002060587       -0.0001867291
  N         1.0745492154        4.5606326548       10.2432530315         0.0002648665       -0.0005559543       -0.0003306235
  N         2.0225468460        7.9023455404        1.8296940983        -0.0001081423       -0.0000317457       -0.0001264373
  N         2.0894484687        7.6760653364        7.6883113307        -0.0002582816        0.0002615100        0.0000420027
  N         3.8047839942        1.9746153686        1.2025492717        -0.0000168911       -0.0002365385        0.0003012007
  N         3.9040664594        1.6944807550        6.7672400254        -0.0002468011        0.0003462900       -0.0001732113
  N         5.5441345681       10.5658349200        4.1280459114         0.0002108636        0.0001686913       -0.0001394540
  N         4.9993604024       10.4299218751        9.9628734519        -0.0001929501       -0.0001168721        0.0001305718
  N         7.2953860655        4.3830423676        4.6283740379         0.0000440885        0.0003144815        0.0001191057
  N         6.9052676302        4.7456997569       10.2723453957        -0.0005456207       -0.0000071115        0.0000239321
  N         8.2351717670        7.9287866443        1.7795004040         0.0002092555       -0.0001068757        0.0000030367
  N         8.1560249307        7.9265857327        7.6884072649         0.0000051239        0.0003078988        0.0000819754
  N         9.8785726428        1.6037963879        0.9289077762        -0.0000381295       -0.0001734486       -0.0000227335
  N         9.7479254244        1.6196676996        6.8129814982         0.0001453406       -0.0001712609        0.0000479370
  N        11.4603454360       10.5886071257        4.0271387608         0.0000142104        0.0001562452        0.0002229121
  N        11.1464198337       10.5955507379        9.7874357077         0.0001523971       -0.0000210436       -0.0000240414
  O         0.6190089133       10.2981663177        1.6283514064        -0.0003209491       -0.0000942252        0.0000425663
  O         0.3346030090        9.9812184921        7.5799304586        -0.0000323804        0.0001399089       -0.0001677242
  O         1.1859784559        5.2012225661        2.0047689801        -0.0000341180        0.0000249796       -0.0004612226
  O         1.3615762853        4.8408183845        7.4450915992        -0.0001021205        0.0000892742       -0.0002643455
  O         1.7263695995        7.2199229113        5.0310703399        -0.0001331579        0.0002788763        0.0000766098
  O         1.3463190914        7.3753916696       10.7859455323        -0.0000773829        0.0001547673       -0.0000247601
  O         2.4954891509        2.2130879019        4.5719772903         0.0000921284        0.0003855769        0.0003439130
  O         2.9086916220        2.4323620944       10.3347585035        -0.0001194032        0.0000224484        0.0003564672
  O         3.6846709676        8.3282176076        4.5658377639         0.0001995015        0.0003889581       -0.0000658572
  O         3.1585491486        8.5445042594       10.0687272910        -0.0000891318        0.0002330001        0.0001747156
  O         4.2524473192        1.0610077125        3.6733330901         0.0000745430       -0.0003486016        0.0001167237
  O         4.5673433858        0.9441887245        9.5247170645         0.0002914596        0.0001336438        0.0000318459
  O         4.7182312484       11.4299498536        0.9450552623        -0.0000126179        0.0000102821        0.0000202326
  O         4.6506116835       11.0517911981        6.6222031481         0.0002164788       -0.0002079147        0.0000902202
  O         5.6504400093        4.1936336808        1.2067568268         0.0002298181       -0.0003626982       -0.0002353246
  O         5.8544456141        3.7165010956        6.9775637899         0.0002462276       -0.0000057988        0.0000834681
  O         6.6186598452       10.4344980209        1.7414137571        -0.0000496422        0.0000172857        0.0003061399
  O         6.1214898416        9.5620266734        7.5769580489        -0.0001151672        0.0002477710        0.0003945693
  O         7.5454437349        5.2048588237        2.0130281175        -0.0002814172        0.0000315476       -0.0002023332
  O         7.2861633761        5.3171291254        7.6477618683         0.0001404174        0.0002218762        0.0002895675
  O         7.7973258180        7.3373364993        4.9257104334         0.0000772357        0.0000230077        0.0001185344
  O         7.4881358380        7.5799886192       10.7744672565        -0.0000911971       -0.0002045517        0.0002374434
  O         8.6205537796        1.9243869296        4.3943964180        -0.0001793167       -0.0001035125        0.0000248678
  O         8.3127607637        2.4015603062       10.1876417095        -0.0002337015        0.0003967457       -0.0002285828
  O         9.5704043673        8.4954539325        4.2197901877         0.0000480800       -0.0002423527        0.0001386005
  O         9.5217806068        8.4515602347        9.9794472204        -0.0000640534       -0.0003407718       -0.0001195154
  O        10.3258293474        0.6385646141        3.6532184544         0.0001791334       -0.0000750991       -0.0003652265
  O        10.1996523915        1.2752537442        9.6057207345         0.0002049132       -0.0002148994       -0.0001396427
  O        10.8432546692       11.4170507824        0.7725935632         0.0001534669        0.0000309910       -0.0002634936
  O        10.8933316310       11.3833853406        6.5010062457        -0.0000258426       -0.0001789638        0.0004343679
  O        11.7565239846        3.7759626066        1.0881347283        -0.0002588345        0.0002047642        0.0000950355
  O        11.3606644517        4.0250097256        7.0382622034         0.0000526149        0.0000840117       -0.0000395179
