     208
 i =        0, time =        0.000, E =     -1010.1043666500
  C         0.3764779974       10.2274790356        5.0911463106
  C         0.3176154321       10.5543460951       10.7303888612
  C         0.2441124344        4.3746611613        2.1035376006
  C         0.2412137452        4.3911358411        7.8234003868
  C         1.6677265741       10.9760816016        4.9415865668
  C         1.2711986870       11.6530658935       10.2470890060
  C         1.5104272649        1.0859475832        1.6351215020
  C         1.7530675210        1.2788803015        7.6258037455
  C         2.8408047083        7.7811425835        5.3388633415
  C         2.4386520288        7.9916938451       10.9754703751
  C         2.6298148038        1.9813319702        2.1892456034
  C         3.0124180621        2.0719703281        7.9436102056
  C         3.1079362661        8.1325528770        0.7987464519
  C         3.2872721059        7.9685930616        6.7927422803
  C         3.2057951412        1.7485555904        3.6299327169
  C         3.5769693023        1.7505413179        9.4297456117
  C         4.3576135823        7.2936798992        0.9749457858
  C         4.4980856106        6.9929192335        7.0025577032
  C         4.8645174806        5.0040299341        3.9117152708
  C         4.5563152304        5.0789649187        9.6549336235
  C         5.7687325176       10.7466672685        0.8297630888
  C         5.6966481636       10.3137687517        6.6003474266
  C         6.0868351092        4.1032505784        3.5856600737
  C         5.7974436263        4.2730736984        9.3469658459
  C         6.5241524133       10.1555489565        5.2549895748
  C         6.1759049599       10.3165302061       10.9468493594
  C         6.4993064241        4.4554159804        2.1382732869
  C         6.3067656832        4.4871647159        7.8919375065
  C         7.7790341660       10.9591234969        4.8966582440
  C         7.3651316822       11.0804691796       10.5318025970
  C         7.4567506474        1.4099620420        1.6806357949
  C         7.5261492647        0.8661627287        7.6919099560
  C         8.8653221923        7.9001578700        5.1233715916
  C         8.6978067886        8.0452903657       10.8908313454
  C         8.9052117518        1.8841650547        2.0493790654
  C         8.5997762701        1.8712896193        7.8785221956
  C         9.2539528315        8.2325642235        0.7631200992
  C         9.3154653966        8.1302803239        6.6993310779
  C         9.3966609100        1.4872192983        3.4469787808
  C         9.0752760793        1.8721472405        9.3715667195
  C        10.4076655545        7.2924325732        1.0294660010
  C        10.5579653418        7.3575299147        7.1898963472
  C        10.7673895101        5.2628454207        3.8112004110
  C        10.7074544866        5.0268762804        9.6997646758
  C        11.9397277468       10.7549485269        0.6644218650
  C        11.8215544897       10.5358316919        6.5193714518
  C        11.7970288763        4.1725741804        3.5784447764
  C        11.9825654204        4.2397842387        9.3186821230
  H         0.5237271856        9.1378137635        5.0336444571
  H         0.6718943221        9.5541437882       10.5687588808
  H         0.2928129300        4.2719463976        5.5184053334
  H         0.7389066750        4.3230359023       11.2375862096
  H         0.8041184458        0.8857960955        2.4355134738
  H         0.9762779848        1.2927064959        8.3834558059
  H         1.5838007464       12.0873124926        4.9222600362
  H         0.9509687123       12.6595199426       10.3170408361
  H         1.1621564011        5.3448072048        4.6491983207
  H         1.3528557556        5.5674872088       10.2790191743
  H         1.0728406379        1.4713368241        0.7450603532
  H         1.2651364694        1.6153818420        6.7012697026
  H         1.3252392628        8.6337092930        1.7219083944
  H         1.3165243577        8.3241981752        7.4726631642
  H         1.4340222822        3.6289437094        4.5310269361
  H         1.8700527293        3.9468658319        9.9862806750
  H         2.2434880116       10.5762957166        4.0282914924
  H         1.5454975239       11.4819037286        9.1911072938
  H         1.6334771955        6.9220493114        1.8486169757
  H         1.7982945214        6.6800882631        7.7007583191
  H         2.0363937476        0.1818635039        1.3688928390
  H         2.0496295651        0.2028720113        7.5044892450
  H         2.2845151686       10.7353688043        5.7679337521
  H         2.2117852417       11.4944016516       10.7828502600
  H         2.4230049266        8.0156035771        2.7727430230
  H         2.5130240024        7.9980894012        8.6600916392
  H         2.3680415576        3.0560302888        2.2076549443
  H         2.8485203187        3.1319851361        7.8246904531
  H         3.4400203119        9.1704474560        0.8103844849
  H         3.5852215156        9.0051982569        6.9025559145
  H         3.5675575640        2.1753686193        0.2053204589
  H         3.2418908852        1.7910428347        5.9489162037
  H         4.1187300223        4.8261606861        3.1299052051
  H         3.7534870260        4.8243751458        8.9613754725
  H         4.1334670524        6.2044166046        1.1790013013
  H         4.2573892436        5.9068227623        6.9907490015
  H         4.2136910749        1.0419348749        1.2349557058
  H         4.2082824245        0.6605318909        6.7609697942
  H         4.6332828503        4.8939271927        5.0045590952
  H         4.0741537652        4.8662343983       10.6413343476
  H         4.7359772967        9.8972637334        4.2115317486
  H         4.1829690545        9.7462811260       10.2044757562
  H         4.5372964792        2.7241267594        1.5472808438
  H         4.6938418663        2.3783516612        6.6480574764
  H         4.8717142733        7.6727357227        1.8950362686
  H         4.8847443298        7.2706031296        7.9786059143
  H         5.0421126712       11.4560265014        4.1330534261
  H         4.6547659477       11.3997761340        9.9846382969
  H         5.1302665978        6.0233810487        3.6710434511
  H         4.5918904774        6.2007167121        9.6339352331
  H         4.9603383229        7.4325399015        0.1270360632
  H         5.2153036395        7.2743980117        6.2805802733
  H         5.9431882215       10.4417657188        3.1146119513
  H         5.3867025325       10.0601610256        9.0342278607
  H         5.7812744545        3.0630976022        3.7057630674
  H         5.6882449680        3.1923631351        9.4912589290
  H         6.7133058533        9.0558156849        5.1497496463
  H         6.4484815632        9.2782562647       10.9369812494
  H         6.8656887572        4.2554759358        5.5737725509
  H         6.6083335990        4.6817421654       11.2575547326
  H         6.7956829470        1.8349153670        2.4427998541
  H         6.7114238775        0.9935196685        8.3614101531
  H         7.5949889137       12.0228086748        4.9266835320
  H         6.9731167131       12.0282561859       10.1835520555
  H         7.5242350871        5.3641194218        4.4522421198
  H         7.1235390644        5.7004117882       10.0143656157
  H         7.0203753027        1.6689794917        0.6663238054
  H         7.0508106945        0.8613548346        6.6907915885
  H         7.4762275768        8.6641475263        1.7753829864
  H         7.2622960720        8.4532974712        7.4933415165
  H         8.0955088913        3.7713186595        4.4335279980
  H         7.6911575465        4.0593416985       10.1964894953
  H         8.0837305308       10.7895145583        3.8921639497
  H         7.8956860369       10.6026891115        9.7201939913
  H         7.9978156871        6.9383985967        1.7437998849
  H         7.8638589227        6.8657537137        7.7580955552
  H         7.3396129576        0.3208583801        1.7701628116
  H         7.9569792522       -0.1191785576        7.8233367218
  H         8.5888906030       10.7059899973        5.6409360823
  H         8.1150794237       11.2475628430       11.2559254630
  H         8.6978746827        8.0749519266        2.7371956522
  H         8.4612113615        8.1980837981        8.5934365132
  H         8.8967658910        2.9383727880        1.9921759130
  H         8.1232584148        2.8502792179        7.5833862765
  H         9.5896856705        9.2672683880        1.0010428166
  H         9.5695302690        9.1317601197        6.7776590026
  H         9.4743290271        1.5747751193       -0.0404494616
  H         9.2942307425        1.5711103175        5.7950262470
  H         9.8897085558        5.0857923490        3.1910654374
  H         9.8288646680        4.6878523630        9.1414305917
  H        10.2527913367        6.2503302100        0.6848002774
  H        10.4174448956        6.2861472398        7.3062905791
  H        10.4411280829        0.7027289158        1.1064633891
  H        10.1559972798        0.6709991754        7.0791789600
  H        10.5740783631        5.1792723028        4.8353302076
  H        10.5002128144        4.8510104647       10.7601509746
  H        10.7890916527        9.8214651619        4.0595073216
  H        10.4630589883        9.9759170601       10.1278277879
  H        10.5495811413        2.4191044419        0.9555606442
  H        10.4048352236        2.4210451845        6.8939682620
  H        10.7207056397        7.2535104440        2.0678679201
  H        10.9372542325        7.8220574739        8.1275727175
  H        11.1761710633       11.5522848350        4.0133188480
  H        10.7492407683       11.5662747725        9.7859808661
  H        11.1558453696        6.2551795675        3.6907197625
  H        10.6913038648        6.1443464884        9.6189997608
  H        11.2557132730        7.6258711285        0.2487267788
  H        11.3739273231        7.4617931879        6.4790309485
  H        11.9615881726       10.4308406594        3.0526858861
  H        11.5410963632       10.3514041281        8.8368874382
  H        11.3757410656        3.2001788014        3.8765789588
  H        11.6589665036        3.2369821686        9.6601813359
  N         0.7658634134        4.3857232575        4.5970528982
  N         1.0745492154        4.5606326548       10.2432530315
  N         2.0225468460        7.9023455404        1.8296940983
  N         2.0894484687        7.6760653364        7.6883113307
  N         3.8047839942        1.9746153686        1.2025492717
  N         3.9040664594        1.6944807550        6.7672400254
  N         5.5441345681       10.5658349200        4.1280459114
  N         4.9993604024       10.4299218751        9.9628734519
  N         7.2953860655        4.3830423676        4.6283740379
  N         6.9052676302        4.7456997569       10.2723453957
  N         8.2351717670        7.9287866443        1.7795004040
  N         8.1560249307        7.9265857327        7.6884072649
  N         9.8785726428        1.6037963879        0.9289077762
  N         9.7479254244        1.6196676996        6.8129814982
  N        11.4603454360       10.5886071257        4.0271387608
  N        11.1464198337       10.5955507379        9.7874357077
  O         0.6190089133       10.2981663177        1.6283514064
  O         0.3346030090        9.9812184921        7.5799304586
  O         1.1859784559        5.2012225661        2.0047689801
  O         1.3615762853        4.8408183845        7.4450915992
  O         1.7263695995        7.2199229113        5.0310703399
  O         1.3463190914        7.3753916696       10.7859455323
  O         2.4954891509        2.2130879019        4.5719772903
  O         2.9086916220        2.4323620944       10.3347585035
  O         3.6846709676        8.3282176076        4.5658377639
  O         3.1585491486        8.5445042594       10.0687272910
  O         4.2524473192        1.0610077125        3.6733330901
  O         4.5673433858        0.9441887245        9.5247170645
  O         4.7182312484       11.4299498536        0.9450552623
  O         4.6506116835       11.0517911981        6.6222031481
  O         5.6504400093        4.1936336808        1.2067568268
  O         5.8544456141        3.7165010956        6.9775637899
  O         6.6186598452       10.4344980209        1.7414137571
  O         6.1214898416        9.5620266734        7.5769580489
  O         7.5454437349        5.2048588237        2.0130281175
  O         7.2861633761        5.3171291254        7.6477618683
  O         7.7973258180        7.3373364993        4.9257104334
  O         7.4881358380        7.5799886192       10.7744672565
  O         8.6205537796        1.9243869296        4.3943964180
  O         8.3127607637        2.4015603062       10.1876417095
  O         9.5704043673        8.4954539325        4.2197901877
  O         9.5217806068        8.4515602347        9.9794472204
  O        10.3258293474        0.6385646141        3.6532184544
  O        10.1996523915        1.2752537442        9.6057207345
  O        10.8432546692       11.4170507824        0.7725935632
  O        10.8933316310       11.3833853406        6.5010062457
  O        11.7565239846        3.7759626066        1.0881347283
  O        11.3606644517        4.0250097256        7.0382622034
     208
 i =        1, time =        0.500, E =     -1010.1027630752
  C         0.3830775519       10.2250672251        5.0909534609
  C         0.3168654262       10.5520348223       10.7314877155
  C         0.2432994701        4.3761577065        2.1012254128
  C         0.2412827582        4.3952045616        7.8262729789
  C         1.6705428615       10.9763009934        4.9404472687
  C         1.2732111328       11.6558175989       10.2459231587
  C         1.5100611643        1.0864579908        1.6352879274
  C         1.7531173775        1.2739783502        7.6239798997
  C         2.8422584857        7.7812264568        5.3390172754
  C         2.4378876272        7.9885747988       10.9717143467
  C         2.6367085350        1.9791428138        2.1903393453
  C         3.0116296494        2.0713912975        7.9404371958
  C         3.1077563025        8.1326828896        0.7988161547
  C         3.2847862733        7.9670068958        6.7900102888
  C         3.2068438573        1.7480786816        3.6321877130
  C         3.5777477878        1.7552386891        9.4287453224
  C         4.3588275677        7.2962410922        0.9753995036
  C         4.4928482665        6.9915474978        7.0015542725
  C         4.8666556580        5.0051456582        3.9118702842
  C         4.5545051799        5.0765515214        9.6582326780
  C         5.7658648488       10.7465574633        0.8226819225
  C         5.7013921780       10.3123858125        6.6036103331
  C         6.0852218590        4.1057817481        3.5869889145
  C         5.7985962780        4.2785573393        9.3476408234
  C         6.5263590487       10.1569106974        5.2555653515
  C         6.1776774583       10.3205143008       10.9450288088
  C         6.4983780975        4.4587790162        2.1399853964
  C         6.3076788852        4.4867874690        7.8922554094
  C         7.7803639410       10.9543256784        4.8932020767
  C         7.3663853122       11.0769130152       10.5343572108
  C         7.4540415995        1.4063215385        1.6756478338
  C         7.5328441112        0.8683113770        7.6886629545
  C         8.8668175223        7.8959603783        5.1300973653
  C         8.6977089881        8.0442070247       10.8886977009
  C         8.9105752418        1.8834695916        2.0528574902
  C         8.5964838698        1.8720410831        7.8775785388
  C         9.2514996175        8.2307727510        0.7618849037
  C         9.3127309478        8.1283627099        6.6992652899
  C         9.3933647377        1.4847401116        3.4447228325
  C         9.0773106346        1.8749512455        9.3698375430
  C        10.4084629374        7.2965428245        1.0312723669
  C        10.5539962504        7.3521563767        7.1896052629
  C        10.7665080861        5.2627480379        3.8077561932
  C        10.7064619209        5.0275883763        9.7014249002
  C        11.9377433799       10.7546103827        0.6658585058
  C        11.8216852446       10.5381968240        6.5191001760
  C        11.7979427661        4.1734555997        3.5788142864
  C        11.9830600383        4.2426529912        9.3206198020
  H         0.5170076741        9.1240535880        5.0391833534
  H         0.6681350380        9.5519878640       10.5707125246
  H         0.2943514320        4.2757955161        5.5159115117
  H         0.7381512735        4.3278778609       11.2413825774
  H         0.7947968268        0.8833486022        2.4456280549
  H         0.9602519736        1.2869715042        8.3737184801
  H         1.5785323107       12.1019488662        4.9305517310
  H         0.9389923657       12.6630334005       10.3192133589
  H         1.1668734459        5.3440997612        4.6469250224
  H         1.3602699394        5.5776796703       10.2901043517
  H         1.0584330155        1.4682425522        0.7499120358
  H         1.2683764184        1.5967543065        6.7054413736
  H         1.3164097328        8.6301577173        1.7201388410
  H         1.3160368592        8.3288024435        7.4902486453
  H         1.4358605920        3.6364473874        4.5177572416
  H         1.8701693137        3.9402474207        9.9897432602
  H         2.2485751187       10.5871258804        4.0277823135
  H         1.5446292053       11.4912138886        9.1817826728
  H         1.6443799402        6.9362511554        1.8403941630
  H         1.8051011584        6.6781144363        7.6991238716
  H         2.0322784105        0.1749943140        1.3705281111
  H         2.0430574444        0.1944061110        7.5130890930
  H         2.2986549027       10.7463123087        5.7697387937
  H         2.2034288767       11.5042802644       10.7872101391
  H         2.4270818462        8.0180233466        2.7793140088
  H         2.5049567815        7.9931428757        8.6566438109
  H         2.3762964405        3.0512746381        2.2036389832
  H         2.8521368371        3.1353138027        7.8183466638
  H         3.4346046609        9.1727815276        0.8203772263
  H         3.5763518305        8.9960217902        6.9180316858
  H         3.5620959595        2.1748963830        0.2111833748
  H         3.2333625613        1.8049126189        5.9365219367
  H         4.1207154579        4.8215275380        3.1306159417
  H         3.7624228160        4.8302089710        8.9505830131
  H         4.1361058774        6.1950301715        1.1944490288
  H         4.2515975628        5.9027227652        6.9913363348
  H         4.2037249887        1.0397068035        1.2288445358
  H         4.1965504596        0.6752673846        6.7547034487
  H         4.6285265125        4.8848501629        5.0068713462
  H         4.0845594930        4.8631552717       10.6351446361
  H         4.7346606643        9.8869883493        4.2053067950
  H         4.1931588433        9.7423527478       10.2035291586
  H         4.5247783519        2.7210320038        1.5535549977
  H         4.7001963053        2.3756351818        6.6382192328
  H         4.8692143419        7.6757091969        1.8810223333
  H         4.8820245803        7.2701864044        7.9770362036
  H         5.0395734900       11.4617878496        4.1208196103
  H         4.6438749633       11.3795894905        9.9845362174
  H         5.1331002688        6.0249868250        3.6655360914
  H         4.5977597695        6.1969302196        9.6333736093
  H         4.9715417097        7.4342059403        0.1337248686
  H         5.2085698833        7.2657833846        6.2807785585
  H         5.9473194809       10.4414916361        3.1154333640
  H         5.3782649454       10.0717343732        9.0309141578
  H         5.7735977457        3.0668691047        3.7003942584
  H         5.6927635682        3.1877428526        9.4843934863
  H         6.7066798091        9.0420910540        5.1502781353
  H         6.4503669006        9.2783851909       10.9303685634
  H         6.8519034400        4.2577071134        5.5693360692
  H         6.6031067439        4.6837651327       11.2452974251
  H         6.8015067377        1.8222061261        2.4391502129
  H         6.6999744898        0.9895696076        8.3618071930
  H         7.6022689038       12.0222566570        4.9173991063
  H         6.9828466777       12.0308592727       10.1837438755
  H         7.5134673215        5.3618240815        4.4445403162
  H         7.1291504457        5.7104830180       10.0218102525
  H         7.0213119967        1.6647919778        0.6828349557
  H         7.0549529473        0.8606279616        6.6914651592
  H         7.4943189750        8.6659405992        1.7821509199
  H         7.2660310898        8.4582022333        7.5047333040
  H         8.0857477086        3.7664881664        4.4356704750
  H         7.6828972084        4.0715568278       10.1947693694
  H         8.0887057207       10.7840036551        3.9006087257
  H         7.8927936919       10.5907973808        9.7131314817
  H         7.9980219880        6.9373903243        1.7508303428
  H         7.8582642542        6.8690320149        7.7739200244
  H         7.3507941247        0.3196815854        1.7727429663
  H         7.9545321001       -0.1198182591        7.8311398458
  H         8.5756746100       10.6919414699        5.6492353841
  H         8.1151991962       11.2447052591       11.2548556786
  H         8.7092527234        8.0630980890        2.7368810784
  H         8.4501036978        8.2004327022        8.5899328612
  H         8.8867775529        2.9465636900        1.9932189204
  H         8.1167839566        2.8528302173        7.5760325794
  H         9.5933280125        9.2688845143        1.0064219257
  H         9.5682865321        9.1337959993        6.7766659329
  H         9.4731364125        1.5728051454       -0.0429809050
  H         9.2840038911        1.5746527453        5.7898348653
  H         9.8858953253        5.0700796703        3.1996311815
  H         9.8428070089        4.6928162541        9.1494677725
  H        10.2696059138        6.2402356181        0.7009203127
  H        10.4222025037        6.2680560783        7.2992694593
  H        10.4350083683        0.7018535606        1.1007419875
  H        10.1716089627        0.6649022814        7.0716205518
  H        10.5640382752        5.1613196935        4.8332110066
  H        10.5076088886        4.8639932949       10.7739572239
  H        10.7859216110        9.8105743382        4.0617772433
  H        10.4684410138        9.9804606228       10.1345695645
  H        10.5475341214        2.4274667363        0.9585129497
  H        10.4210942849        2.4263061256        6.8920368498
  H        10.7154005525        7.2377637539        2.0522596540
  H        10.9307180220        7.8262593022        8.1198407566
  H        11.1649873751       11.5537915228        4.0074400275
  H        10.7549213813       11.5494262745        9.7832495299
  H        11.1553980461        6.2681377542        3.6967611896
  H        10.6893403312        6.1540168552        9.6238648004
  H        11.2369304377        7.6230028741        0.2498580965
  H        11.3713356489        7.4559100851        6.4702695019
  H        11.9546725094       10.4265950436        3.0460193997
  H        11.5383217419       10.3607800754        8.8333255374
  H        11.3778962608        3.2082475399        3.8748495660
  H        11.6626870093        3.2497416231        9.6493509843
  N         0.7647587861        4.3835334499        4.5950588488
  N         1.0773980913        4.5545795523       10.2396862612
  N         2.0214840987        7.9019268982        1.8283794886
  N         2.0867966106        7.6789922567        7.6889235666
  N         3.8047118043        1.9721206765        1.2060119115
  N         3.9014158579        1.6981829537        6.7653858426
  N         5.5463068278       10.5674825785        4.1264733423
  N         4.9972914637       10.4285669081        9.9643706302
  N         7.2956685086        4.3865091628        4.6295304247
  N         6.8992844276        4.7455185280       10.2725841769
  N         8.2374485669        7.9277506404        1.7796703160
  N         8.1560206064        7.9297127449        7.6891032870
  N         9.8782837290        1.6018413688        0.9287101219
  N         9.7493911681        1.6177181707        6.8136081822
  N        11.4607294164       10.5901326586        4.0294527563
  N        11.1482354328       10.5955662419        9.7872565729
  O         0.6154492396       10.2971452126        1.6287217706
  O         0.3341850832        9.9827860154        7.5779517742
  O         1.1856436278        5.2015271391        1.9997123311
  O         1.3604793332        4.8418182158        7.4422331315
  O         1.7249643505        7.2229706605        5.0319073452
  O         1.3455192965        7.3770923059       10.7856920092
  O         2.4964565036        2.2173356801        4.5757972545
  O         2.9074661434        2.4325246266       10.3385780328
  O         3.6868511037        8.3324644760        4.5649913657
  O         3.1575542554        8.5470351073       10.0705802990
  O         4.2533064587        1.0571989797        3.6746750718
  O         4.5704185408        0.9457339401        9.5251043577
  O         4.7180797064       11.4300526113        0.9453086704
  O         4.6530674940       11.0494792285        6.6231997595
  O         5.6529934116        4.1896358492        1.2042204324
  O         5.8571036776        3.7164517051        6.9784842373
  O         6.6181264057       10.4346364099        1.7447678669
  O         6.1201814608        9.5648066095        7.5812415372
  O         7.5423188498        5.2051173180        2.0108126791
  O         7.2875861822        5.3194750840        7.6509958484
  O         7.7980225963        7.3374552510        4.9269759552
  O         7.4872957261        7.5777654173       10.7770362697
  O         8.6186274861        1.9232976388        4.3946401568
  O         8.3101214604        2.4059682415       10.1852601134
  O         9.5709614614        8.4927646704        4.2213206369
  O         9.5209901504        8.4477850239        9.9781902567
  O        10.3277606020        0.6378588128        3.6491565350
  O        10.2018317896        1.2729274087        9.6042031576
  O        10.8450207199       11.4173172789        0.7697489206
  O        10.8930372497       11.3814077562        6.5058160181
  O        11.7537123177        3.7782281131        1.0892581571
  O        11.3612674928        4.0259223330        7.0378158445
     208
 i =        2, time =        1.000, E =     -1010.1005893094
  C         0.3894816445       10.2225696822        5.0910345288
  C         0.3158712776       10.5499053106       10.7325958282
  C         0.2424346913        4.3774758979        2.0988689322
  C         0.2412505025        4.3991184877        7.8291233329
  C         1.6736153320       10.9766225145        4.9389719758
  C         1.2754568508       11.6581906838       10.2446301619
  C         1.5099277665        1.0868883028        1.6358070983
  C         1.7530286603        1.2688376752        7.6222353958
  C         2.8436259253        7.7814599063        5.3391535336
  C         2.4372201963        7.9853739668       10.9680753197
  C         2.6436330491        1.9773946399        2.1913105088
  C         3.0109289527        2.0706675151        7.9373721185
  C         3.1073249510        8.1328276506        0.7987050405
  C         3.2820822903        7.9649899060        6.7870604780
  C         3.2078233195        1.7473045700        3.6340202831
  C         3.5785376357        1.7599779340        9.4274795722
  C         4.3598244896        7.2984926134        0.9763514139
  C         4.4872932003        6.9902397994        7.0008899911
  C         4.8689680024        5.0062519110        3.9121420990
  C         4.5523072460        5.0743097681        9.6616354154
  C         5.7630000586       10.7464781343        0.8153704771
  C         5.7061376578       10.3111188935        6.6068446474
  C         6.0836975997        4.1082990617        3.5883657357
  C         5.7998695802        4.2840963497        9.3482825947
  C         6.5282883867       10.1582939418        5.2559293179
  C         6.1791531479       10.3242254293       10.9435187929
  C         6.4975487786        4.4624350466        2.1416747490
  C         6.3089852101        4.4865276296        7.8924217419
  C         7.7817997165       10.9495371272        4.8903646981
  C         7.3676601627       11.0735875525       10.5364398515
  C         7.4513174279        1.4025464968        1.6707737721
  C         7.5393469859        0.8701517851        7.6852215769
  C         8.8686704375        7.8921144290        5.1371463304
  C         8.6974979557        8.0432213594       10.8866799576
  C         8.9157626873        1.8827942371        2.0559591821
  C         8.5932602044        1.8732238668        7.8763947420
  C         9.2491090689        8.2290417872        0.7606868959
  C         9.3098992717        8.1260881179        6.6990519439
  C         9.3899872041        1.4818681128        3.4426695112
  C         9.0797940900        1.8774996304        9.3676025120
  C        10.4097089821        7.3005455134        1.0323749532
  C        10.5501137944        7.3467922097        7.1892810891