      12
i =        0, time =        0.000, E =       -68.5326334251
  C        -0.2030575289       -0.5450195931        0.6461456770       -0.0004232035        0.0005827097       -0.0003122725
  C         0.8856061752       -1.6755700066        0.4304377812        0.0002717987       -0.0002851664        0.0000120578
  C         0.2279023424        0.7662480090       -0.0506927925        0.0002190723       -0.0001220138       -0.0001038004
  O        -0.3849854265        0.9780471478       -1.3067256741       -0.0000851256        0.0002120556       -0.0002668085
  O         1.0365574445        1.5343776384        0.3082470715        0.0001048259       -0.0003571931        0.0000898065
  H         0.0765556761        1.8080211747       -1.5496317759        0.0003730105        0.0000373775        0.0013294180
  H         0.5800252607       -2.6019338172        0.8569557270       -0.0001886835       -0.0001446755       -0.0012115144
  H         1.0916317780       -1.8609972347       -0.6338619167        0.0003408381        0.0009197197        0.0014520189
  H         1.8773007254       -1.4416131690        0.8415185232        0.0017175142        0.0002311857        0.0007806492
  H        -0.3151674565       -0.1700557606        1.6613521744        0.0008641747       -0.0001586019        0.0000799454
  O        -1.4570014878       -1.0944706671        0.2041046590       -0.0002345895       -0.0000601644        0.0002927715
  H        -1.3751879826       -0.9097615745       -0.7921899387       -0.0005192676        0.0002784318        0.0005415054
      12
i =     1000, time =      500.000, E =       -68.5260224454
  C        -0.3131306338       -0.5335466476        0.6356077344        0.0002085084       -0.0001969409        0.0003089471
  C        -0.5254320640       -1.8604285697       -0.1531723732       -0.0003989900        0.0000228446       -0.0001760410
  C         0.5875216452        0.4288082758       -0.2765039101       -0.0000497870       -0.0003004367       -0.0004488081
  O        -0.0851430208        1.1059722799       -1.2334188355        0.0001089205        0.0003203713        0.0000413669
  O         1.8183166199        0.5791743019       -0.0527320649        0.0002020696        0.0000209462       -0.0000957084
  H         0.5230383756        1.7026263539       -1.7420619170        0.0001729486        0.0011566222        0.0006461371
  H        -1.2020215306       -2.6023964167        0.3124018353        0.0000393707        0.0002140063        0.0018152573
  H        -0.7505865226       -1.6389678239       -1.1909008988       -0.0002011508       -0.0004446225        0.0009461631
  H         0.4562708772       -2.3904175716       -0.1463630780        0.0001054238        0.0004415757        0.0011266377
  H         0.2756946320       -0.7388858244        1.6111690796       -0.0010638974       -0.0004635405        0.0005830501
  O        -1.3593694699        0.1452189525        1.1605629083       -0.0001188407       -0.0000401501       -0.0000538686
  H        -2.2441003738        0.0327257569        0.6952784203        0.0007736958       -0.0000313238        0.0004076462
      12
i =     2000, time =     1000.000, E =       -68.5327924547
  C        -0.3469239013       -0.5647815747        0.5595798927       -0.0003442392       -0.0001169138        0.0001328007
  C        -1.7907595594       -0.7299745533       -0.0889186065        0.0000242011        0.0003942341       -0.0002028230
  C         0.6395618752        0.0548170585       -0.5578736109        0.0001735528       -0.0004204998       -0.0002995236
  O         0.4761791507        1.4624227983       -0.7414279784       -0.0002016692        0.0002468502        0.0000817355
  O         1.4899919021       -0.6968304507       -1.0070066757       -0.0000863694       -0.0001557766        0.0001280559
  H         1.2526114900        1.7903021686       -1.2531213757       -0.0000598801       -0.0014012680       -0.0002336982
  H        -2.4635119547       -1.1588434838        0.7204343013        0.0009056778       -0.0009641061       -0.0009530926
  H        -2.1446616301        0.2122196223       -0.4370383273       -0.0011742965        0.0011732453        0.0010293714
  H        -1.6178673547       -1.4319583624       -0.9410842514        0.0003489934        0.0007281643       -0.0000990161
  H         0.1484532006       -1.5330181636        0.7672986328        0.0020081870       -0.0004990337       -0.0007753278
  O        -0.4820086353        0.2306798787        1.7897750455        0.0003013732        0.0001630177        0.0000653595
  H        -0.8805556492        1.0831522044        1.5265490231       -0.0005363061       -0.0013690974        0.0011159318
      12
i =     2997, time =     1498.500, E =       -68.5324280370
  C        -0.4281293262       -0.3712169978        0.6620673770       -0.0001423669       -0.0000540358       -0.0001596840
  C        -1.8911202509       -0.0684516649        0.3810394700       -0.0000556164        0.0001876807        0.0003031337
  C         0.3825731816       -0.1458698276       -0.7016676643        0.0001900350       -0.0002595740        0.0001002155
  O         1.6908765014        0.2722334769       -0.3201198863        0.0001185004       -0.0000450680        0.0002371772
  O        -0.0733008428       -0.2765800660       -1.8184451764       -0.0002253113        0.0001107901       -0.0000946178
  H         2.0715710673        0.5417024371       -1.1787447030       -0.0004764701        0.0003722936        0.0000185438
  H        -2.4129434424        0.1938265454        1.2947727493       -0.0002453609        0.0003243087       -0.0009076639
  H        -1.9343016548        0.8126119467       -0.2380847410       -0.0014364926       -0.0008159270       -0.0011115070
  H        -2.4987708778       -0.8514289039       -0.1200997652       -0.0001071115        0.0005465712        0.0002774482
  H        -0.2168336941       -1.4784679463        1.0016433567        0.0003295497       -0.0012983925       -0.0017987496
  O         0.1115045013        0.4215718483        1.7480346255        0.0002415149        0.0001531416       -0.0000282600
  H         0.6240828789        1.1366327905        1.3705433050       -0.0001289263       -0.0011209036       -0.0011780406
      12
i =     3997, time =     1998.500, E =       -68.5267496100
  C        -0.4721402051       -0.1720324466        0.7048357531        0.0001059075       -0.0000035868       -0.0002491325
  C        -1.1164672538        1.2594206312        0.9027017973        0.0002325709        0.0000318061        0.0002847314
  C         0.0874668451       -0.2991530984       -0.7350656316       -0.0001632991        0.0001488025        0.0001926641
  O         1.4756781624       -0.2637725827       -0.8959428236       -0.0001130552       -0.0000801592        0.0000215234
  O        -0.6596207744       -0.1193228048       -1.7248028860        0.0001092269       -0.0000944102        0.0000173533
  H         1.4753741716       -0.4637213149       -1.8726744379       -0.0009754616        0.0004651941       -0.0002276076
  H        -2.0123340478        1.1043729919        1.5512463155        0.0000150984        0.0004697721        0.0007796247
  H        -0.3761138793        1.9704515303        1.3997025270        0.0008808009       -0.0002503577        0.0000365104
  H        -1.5076435613        1.5812967685       -0.0362968175        0.0005295054       -0.0012032424       -0.0004123909
  H        -1.4233708445       -0.8367875131        0.7192093658       -0.0009712371        0.0000172385       -0.0002844876
  O         0.5084542660       -0.3383768565        1.7379643341       -0.0001029959        0.0001277793       -0.0001898696
  H         0.7085107394       -1.2967406221        1.8542485746        0.0001295017       -0.0008652945       -0.0002148840
      12
i =     4997, time =     2498.500, E =       -68.5378497975
  C        -0.3250624027        0.1963352666        0.7086052060        0.0001454386       -0.0002207136        0.0003923070
  C         0.2736975655        1.5790099263        1.2152390406       -0.0000687985       -0.0000255097       -0.0002053910
  C        -0.2512776796       -0.1689412607       -0.7675065321        0.0000210066       -0.0001021890        0.0000155026
  O         0.8881023489       -0.8895334637       -1.1149319750       -0.0001239795        0.0000915976       -0.0002478502
  O        -1.0236237891        0.2562701367       -1.5837884721        0.0001629346        0.0001531873       -0.0000614428
  H         0.9260835042       -0.9485040021       -2.1023288112       -0.0008096279       -0.0012296430        0.0001340151
  H        -0.1897564884        1.7351436886        2.2172160290        0.0004378703        0.0008500118       -0.0010023190
  H         1.3486246298        1.4813972436        1.3204887964       -0.0006393686       -0.0001254961        0.0008292370
  H         0.0918177716        2.4823578309        0.5487993727        0.0005743483        0.0007039485       -0.0001532501
  H        -1.3618614679        0.2462783497        1.0149787236       -0.0010842511        0.0009262509        0.0006771622
  O         0.2368889935       -0.8236953077        1.5621913852       -0.0000241999       -0.0001128887        0.0001573926
  H         1.1823735857       -1.0131775129        1.2613182867        0.0001431084        0.0009178892       -0.0005643161
      12
i =     5997, time =     2998.500, E =       -68.5336693770
  C        -0.0829038124        0.2951402176        0.7400733186       -0.0001410964        0.0001708052        0.0001220255
  C         1.3662614875        0.9881956449        0.8161666566        0.0002200914       -0.0000432313        0.0000289784
  C        -0.3712157765        0.0105004455       -0.6896583573       -0.0001030244       -0.0001475307        0.0001560648
  O         0.4447802544       -0.9920235816       -1.1488908041        0.0000253037       -0.0001474906       -0.0000143609
  O        -1.1252528882        0.6497773692       -1.4200681463        0.0000503051        0.0001025081       -0.0000343429
  H         0.3678909574       -1.0156365712       -2.1245767767       -0.0009586711        0.0008736147       -0.0002332929
  H         1.3455241947        1.7843419948        1.5516779408       -0.0003814955        0.0004899409       -0.0002885006
  H         2.1284511325        0.3502783010        1.1189162477       -0.0008804648       -0.0011351426        0.0003793012
  H         1.7217962075        1.3512675282       -0.1983906773        0.0001521055       -0.0008047442        0.0001680777
  H        -0.7730067245        1.0645021349        1.0466143813       -0.0013086076        0.0002207717        0.0000327160
  O        -0.3240795034       -0.7566701917        1.7317912178        0.0001925319        0.0000432480       -0.0001682462
  H         0.2848336119       -1.5096584909        1.5674004889       -0.0005249138        0.0005764353       -0.0002685013
      12
i =     6994, time =     3497.000, E =       -68.5333563252
  C         0.2952660533        0.3119736999        0.6892676962        0.0002274623        0.0000331142        0.0001573208
  C         1.8730974079        0.2232524425        0.5966202507       -0.0000067171       -0.0001774857       -0.0003121507
  C        -0.3664252706        0.2477365457       -0.6328246950        0.0000832687       -0.0002224998       -0.0002454890
  O        -0.7402743548       -1.1089575011       -0.8547377464        0.0000532123        0.0002005131        0.0000814672
  O        -0.5647908452        1.1665399544       -1.3906107522       -0.0001071438        0.0000414387        0.0001321916
  H        -0.8441396932       -1.1600870558       -1.8409791415        0.0008487706        0.0007695922       -0.0002750124
  H         2.2153865705       -0.0773559282        1.6074833710       -0.0005429281       -0.0001558926       -0.0001910413
  H         2.2078973376       -0.5095762324       -0.1029445744        0.0004606311        0.0002240119        0.0015189641
  H         2.1358863472        1.2878867336        0.2658122386       -0.0002145775       -0.0004748456       -0.0007700019
  H         0.0764521603        1.2988827650        1.1498382089        0.0000603466       -0.0003413033       -0.0005184352
  O        -0.3841104875       -0.6052742733        1.6096242748       -0.0001746238        0.0000002121        0.0000988508
  H        -0.4521551230       -1.4763012922        1.2293307047       -0.0006475665        0.0005208609        0.0000917240
      12
i =     7994, time =     3997.000, E =       -68.5392016681
  C         0.4745935425        0.1574212343        0.7473230447       -0.0001521337        0.0001486022       -0.0003273631
  C         1.7489872498       -0.5774445525        0.2968727189       -0.0004013955       -0.0000664617        0.0001486614
  C        -0.3703570420        0.3896755389       -0.6177867557        0.0002161828       -0.0000308967       -0.0001149684
  O        -1.5588627806       -0.3091794313       -0.6466052333        0.0000098865        0.0001918481       -0.0000076760
  O         0.0822666281        1.0555003333       -1.5477319106        0.0001034467       -0.0000658839        0.0001063040
  H        -2.0877853638       -0.2690385703       -1.4677396239        0.0003538704        0.0001512933        0.0002200385
  H         2.4641452788       -0.5579188801        1.1229186951        0.0010852780        0.0005325485       -0.0016780549
  H         1.5052265205       -1.5782121903       -0.0243763818       -0.0004549440        0.0003543452        0.0002207167
  H         2.2801292763       -0.0578163899       -0.5389995038       -0.0009012870       -0.0003215375        0.0004013294
  H         0.7263819270        1.1921386063        1.1509674997       -0.0012690638       -0.0007669733       -0.0010650763
  O        -0.1819873087       -0.5616668196        1.7742664754        0.0002047371       -0.0001057091        0.0002706418
  H        -0.6454326289       -1.2983723018        1.3436499841        0.0001757051       -0.0008556074       -0.0004375005
      12
i =     8994, time =     4497.000, E =       -68.5294128752
  C         0.7116260341       -0.2794160273        0.4467745201        0.0000028871        0.0000967318       -0.0000250786
  C         1.0216495230       -1.7090918962        0.1745807213       -0.0001194699       -0.0001351810       -0.0000095207
  C        -0.2131378361        0.4692931846       -0.6076914342       -0.0005158945        0.0001446759        0.0000287858
  O        -1.6643828775        0.4125768144       -0.3275029196       -0.0000868913       -0.0000288304        0.0000170309
  O         0.2001604058        1.0932314743       -1.5489852062        0.0002195042       -0.0001279430       -0.0000974046
  H        -2.0134621272        1.1253595596       -0.9036574340        0.0006449228        0.0010841275        0.0002042944
  H         1.4583886233       -2.2523414657        1.0021837794       -0.0002847792        0.0000404984        0.0009001115
  H         0.1396158613       -2.2747544443       -0.0094916380       -0.0001014381       -0.0009475642       -0.0010630550
  H         1.5051921762       -1.8051687089       -0.7995364166       -0.0000404208        0.0002321738        0.0005402831
  H         1.5611035046        0.3617524335        0.4312822662        0.0009280671        0.0009190119        0.0016311345
  O         0.1942395912       -0.0211978767        1.7617765343        0.0002858127       -0.0000527655       -0.0000402610
  H        -0.6071059547       -0.6161507043        1.9371110715       -0.0002805059        0.0007611501       -0.0001963568
