       2
 i =        0, time =        0.000, E =     -1010.1043666500
  C         0.3764779974       10.2274790356        5.0911463106        0.0006109633       -0.0002178835       -0.0000301922
  C         0.3176154321       10.5543460951       10.7303888612       -0.0000565008       -0.0002186324        0.0000994204
       2
 i =      100, time =       50.000, E =     -1010.1103119478
  C         0.4536738537       10.4119895223        5.1814581892        0.0002031342       -0.0005604348       -0.0003038056
  C         0.2906307028       10.5705152901       10.7643894413        0.0000641221       -0.0001423097        0.0000922884
       2
 i =      200, time =      100.000, E =     -1010.1047316925
  C         0.2939652350       10.4600906470        5.0206140853        0.0000758409        0.0003081699       -0.0007471802
  C         0.1539135752       10.3734213121       10.9434983028       -0.0002926886       -0.0001107195       -0.0001925609
       2
 i =      300, time =      150.000, E =     -1010.1118139367
  C         0.0457459921       10.5630403017        4.9587077063       -0.0001619741        0.0001105812       -0.0001545739
  C         0.0384165538       10.3738175053       10.9115276880        0.0002033932       -0.0002464435       -0.0001029757
       2
 i =      400, time =      200.000, E =     -1010.1137338754
  C        -0.1306600530       10.6055311946        4.9588679891        0.0001200043        0.0001198523        0.0000355482
  C         0.1614683655       10.2223394580       10.7629294663        0.0000261370        0.0000707156       -0.0002188583
       2
 i =      500, time =      250.000, E =     -1010.1085721505
  C        -0.0898531650       10.4815310688        4.9423424719        0.0000365090        0.0001128608       -0.0000868473
  C         0.1761055098       10.1860077409       10.5725055393        0.0003221233       -0.0000985565       -0.0000877788
       2
 i =      600, time =      300.000, E =     -1010.1110442549
  C         0.0385031378       10.3652764240        4.7496632921        0.0000748042        0.0000847635        0.0000793428
  C         0.1577768050       10.2208166698       10.6322064227       -0.0001900967        0.0001693220       -0.0000883937
       2
 i =      700, time =      350.000, E =     -1010.0995493849
  C         0.1443565347       10.3426942494        4.8692797372       -0.0001045653        0.0001856276        0.0003568733
  C         0.0327558147       10.1043901697       10.6874161296        0.0001564363        0.0000764945        0.0000184505
       2
 i =      800, time =      400.000, E =     -1010.1086996854
  C         0.1531487700       10.1823181429        4.9430163726        0.0000228321        0.0003882977       -0.0000500762
  C         0.1845221671       10.3454837029       10.6717171022        0.0001825363        0.0002231209       -0.0001221351
       2
 i =      900, time =      450.000, E =     -1010.1105887497
  C         0.1741046520       10.2442411927        5.0290954534       -0.0003204879        0.0001086653        0.0002060029
  C         0.1829124352       10.6369921202       10.7541053298        0.0001893826        0.0000391331        0.0002845702
       2
 i =     1000, time =      500.000, E =     -1010.0846452702
  C         0.0900707306       10.2290478529        5.0156805859        0.0001670242        0.0004009763        0.0004529495
  C         0.2599749228       10.7018250765       10.8956333482        0.0000013797       -0.0000226106        0.0000081420
       2
 i =     1100, time =      550.000, E =     -1010.1196175052
  C         0.0708805206       10.3048016229        4.9784359883       -0.0000281244        0.0001804932       -0.0001920252
  C         0.1565437476       10.5603470164       10.8474123865       -0.0001208809       -0.0000888357       -0.0003195392
       2
 i =     1200, time =      600.000, E =     -1010.1105506933
  C         0.3849120131       10.6210642129        5.0035135419        0.0004180684        0.0001666469       -0.0001792405
  C         0.1261749415       10.2797778021       10.7439932954       -0.0001036492       -0.0002595398       -0.0000644610
       2
 i =     1300, time =      650.000, E =     -1010.1062380954
  C         0.5643764775       10.6087878394        5.0252529510        0.0001421964       -0.0001058651       -0.0001289202
  C        -0.0971581871       10.0435425207       10.7913381970        0.0000507728       -0.0002412263        0.0001316511
       2
 i =     1400, time =      700.000, E =     -1010.1388047649
  C         0.4787989862       10.5221338574        4.9949674338       -0.0001288830       -0.0004956325       -0.0003458569
  C         0.0471853148       10.1370570100       10.7702684741        0.0001703179        0.0001669345       -0.0001036755
       2
 i =     1500, time =      750.000, E =     -1010.1072770411
  C         0.0990469084       10.4097113511        4.9367227720       -0.0003409753       -0.0002196841       -0.0001447057
  C         0.1261143906       10.1120371797       10.7725349809       -0.0001303646       -0.0000519268        0.0001467427
       2
 i =     1600, time =      800.000, E =     -1010.1362688544
  C        -0.1637048392       10.2122981602        4.9411918171        0.0002137220       -0.0002180502        0.0000199511
  C         0.3019063738       10.2740445888       10.8899630868        0.0003683282       -0.0001101912        0.0002107725
       2
 i =     1700, time =      850.000, E =     -1010.1180952003
  C        -0.0686299776       10.0947964441        4.9743575111       -0.0000860529       -0.0002527475       -0.0003750415
  C         0.2309513455       10.3994383197       10.8114655935       -0.0003846663        0.0001748762       -0.0001770636
       2
 i =     1800, time =      900.000, E =     -1010.1025038629
  C        -0.0019152474        9.9552075390        5.0660502509        0.0003312593       -0.0000067362       -0.0000337064
  C         0.2240687441       10.5564958241       10.7438214876        0.0002666667       -0.0001147177       -0.0001783343
       2
 i =     1900, time =      950.000, E =     -1010.1283147284
  C         0.1817991875       10.1266222826        5.1257446069        0.0001815388        0.0001173472        0.0001126908
  C         0.1830251224       10.3526485899       10.7795643881       -0.0004353735       -0.0000633501       -0.0003164673
       2
 i =     1997, time =      998.500, E =     -1010.1236592486
  C         0.2934755576       10.2864341872        5.1261454617        0.0000814889       -0.0000906694       -0.0001908154
  C         0.1077375443       10.4099961825       10.7702372284        0.0002075954       -0.0000587573       -0.0000306816
       2
 i =     2097, time =     1048.500, E =     -1010.1005955567
  C         0.2105280067       10.4500160195        4.8634816038        0.0000154634        0.0003385218       -0.0001203278
  C         0.1215008652       10.3579228113       10.8003333675       -0.0004782701        0.0000226169        0.0002140644
       2
 i =     2197, time =     1098.500, E =     -1010.1046367204
  C         0.0436495317       10.6467307987        4.8263411750       -0.0002032308        0.0001622275        0.0001754164
  C         0.0102386570       10.2514682409       10.7168436965        0.0001956224       -0.0003418455        0.0000918106
       2
 i =     2297, time =     1148.500, E =     -1010.1130615444
  C         0.0099844184       10.6535184627        4.9010089654       -0.0000102318        0.0001786019        0.0001183735
  C         0.0947641518       10.2352243606       10.6583660800       -0.0001635916        0.0000809578       -0.0000486325
       2
 i =     2397, time =     1198.500, E =     -1010.1300508136
  C         0.1169543016       10.4089934092        4.9342358445       -0.0000562728        0.0002310091       -0.0000853835
  C        -0.0149321611       10.2007093816       10.6730591177        0.0000940243        0.0003312612        0.0001868816
       2
 i =     2497, time =     1248.500, E =     -1010.1269909346
  C         0.2116670732       10.3485259600        4.9967507960       -0.0001869381       -0.0000249645        0.0003218140
  C         0.1220294883       10.4346198213       10.7779565450        0.0000322354        0.0004031562        0.0001512871
       2
 i =     2597, time =     1298.500, E =     -1010.1312226436
  C         0.1061825362       10.2394770643        5.0953887139       -0.0000902349        0.0000861608        0.0004316950
  C         0.1331695157       10.5634003611       10.7936042577        0.0000343530        0.0000106662        0.0002385119
       2
 i =     2697, time =     1348.500, E =     -1010.1041816178
  C         0.1288320046       10.1419810672        5.1416739732       -0.0003608451       -0.0000434628        0.0001357304
  C         0.2791627678       10.6424940227       10.8495376787        0.0001461146        0.0001211353        0.0000252960
       2
 i =     2797, time =     1398.500, E =     -1010.1279006685
  C         0.1428375412       10.1115840058        5.0852550677       -0.0001811203        0.0000925672        0.0004022265
  C         0.3983119994       10.3508637243       10.8765544602        0.0000383353       -0.0004773067       -0.0000553080
       2
 i =     2897, time =     1448.500, E =     -1010.1102215636
  C         0.2467212635       10.3003050798        5.1115315909        0.0000520343        0.0002334774        0.0002362436
  C         0.2866496130       10.1930054494       10.9140845658        0.0001355988        0.0002142779        0.0000720313
       2
 i =     2997, time =     1498.500, E =     -1010.1252231351
  C         0.3141254039       10.1964338369        5.0538751917       -0.0003108758       -0.0000845272        0.0001644910
  C         0.2098126753       10.2236934081       10.9499469087       -0.0002247362       -0.0001225393        0.0000101568
       2
 i =     3097, time =     1548.500, E =     -1010.1087560835
  C         0.3831007616       10.3384683374        5.0439334607       -0.0000895836        0.0003506099        0.0004436098
  C         0.1444422252       10.3587747238       10.7631549848        0.0001919313        0.0005583811       -0.0000107321
       2
 i =     3197, time =     1598.500, E =     -1010.1409855215
  C         0.2535756101       10.4781312483        4.9401815007       -0.0004072605        0.0000894452       -0.0000157581
  C         0.2142210094       10.3812169886       10.7855909292       -0.0000724551       -0.0001581227       -0.0001937637
       2
 i =     3297, time =     1648.500, E =     -1010.1202602399
  C         0.2201517669       10.4302071177        4.9456255134       -0.0001691746       -0.0000972447        0.0000246893
  C         0.1171699467       10.3491624648       10.7612785530        0.0000114669       -0.0002727549       -0.0000595251
       2
 i =     3397, time =     1698.500, E =     -1010.1206473049
  C         0.0439514720       10.2730301571        4.8367969557       -0.0000493028       -0.0003505187        0.0000371676
  C         0.1175824816       10.3593716844       10.7637869707       -0.0000008682        0.0000081826       -0.0001639871
       2
 i =     3497, time =     1748.500, E =     -1010.1126439146
  C         0.0550662388       10.2520298707        4.8349060539        0.0000524069        0.0000258782       -0.0002837106
  C         0.0943851576       10.4966807767       10.5810390673        0.0000120806        0.0002177094       -0.0003608891
       2
 i =     3597, time =     1798.500, E =     -1010.1259224675
  C         0.0127082056       10.2612864259        4.8550934949        0.0003115076       -0.0006571634       -0.0001617653
  C         0.1454545475       10.6965331311       10.6130627875        0.0000554368        0.0001764621        0.0000498557
       2
 i =     3697, time =     1848.500, E =     -1010.1239989793
  C         0.1608806697       10.2232305014        4.8576031298        0.0004240534       -0.0002821971       -0.0001557387
  C         0.2146540707       10.6447679528       10.7504462867        0.0001065553       -0.0000612621       -0.0001051981
       2
 i =     3797, time =     1898.500, E =     -1010.1311820854
  C         0.2331131544       10.3968237847        4.9118327001        0.0002423538        0.0001994398       -0.0006406129
  C         0.0673716476       10.3663757991       10.7661272205       -0.0003709876       -0.0002563774       -0.0001541966
       2
 i =     3897, time =     1948.500, E =     -1010.1123785538
  C         0.1355181012       10.6155809528        4.8726253411        0.0002951644       -0.0005239993       -0.0003949670
  C        -0.0338604824       10.1619800558       10.6749223634        0.0000310570       -0.0001897710        0.0003106935
       2
 i =     3997, time =     1998.500, E =     -1010.0997556794
  C         0.0381891432       10.3827964491        4.8980620377        0.0002441991       -0.0003347644        0.0000050325
  C         0.0234800715       10.0531913989       10.7514388009        0.0001001412        0.0002010911        0.0002885541
       2
 i =     4097, time =     2048.500, E =     -1010.1196520076
  C         0.0932738501       10.4094626797        4.9399303114        0.0000214434        0.0000262579        0.0001762464
  C         0.3639206665       10.2481373319       10.8422194083        0.0000822522        0.0001187604        0.0002761437
       2
 i =     4197, time =     2098.500, E =     -1010.1065248448
  C         0.1736809791       10.4183199558        5.0659931367       -0.0001656751        0.0001790208        0.0003497729
  C         0.3984974725       10.3485490679       10.7392474486       -0.0000392425        0.0002634872        0.0002186400
       2
 i =     4297, time =     2148.500, E =     -1010.1011737209
  C         0.2497533359       10.1818527122        5.0912524471       -0.0000994696       -0.0002202102        0.0004348983
  C         0.3047389655       10.5267527510       10.8252938295       -0.0003076036        0.0003443325        0.0000014398
       2
 i =     4397, time =     2198.500, E =     -1010.0946809602
  C         0.2852579249       10.0374219850        5.2047332927       -0.0003640847        0.0000117355        0.0000433997
  C         0.1368788665       10.4842673773       10.8207431555       -0.0001777825       -0.0000444372        0.0001394061
       2
 i =     4497, time =     2248.500, E =     -1010.0895504315
  C         0.2973385622       10.3575066892        5.1609916583        0.0000825786        0.0004361963       -0.0002582708
  C         0.1389326206       10.4594015466       10.8345082301       -0.0000314493       -0.0001781962        0.0001977883
       2
 i =     4597, time =     2298.500, E =     -1010.0799364297
  C         0.2702233909       10.4668082182        5.0686658351       -0.0003816428       -0.0002715258       -0.0000378195
  C         0.0753143887       10.3703207335       10.8007343229       -0.0000923328       -0.0000421910        0.0000119074
       2
 i =     4697, time =     2348.500, E =     -1010.0980331813
  C         0.3574712550       10.5932474981        4.9176701810        0.0002704489       -0.0000037911        0.0000829156
  C         0.1711727201       10.3620595375       10.7610270872        0.0000786720       -0.0001875409       -0.0000254987
       2
 i =     4797, time =     2398.500, E =     -1010.0919809541
  C         0.2547431735       10.3839486451        4.8025116266       -0.0004932905       -0.0000730269       -0.0003589106
  C         0.1677620976       10.2906057328       10.6116274397        0.0000132604        0.0000491258       -0.0001415635
       2
 i =     4897, time =     2448.500, E =     -1010.1116771143
  C         0.1987666417       10.5087202299        4.7681744419        0.0002377920       -0.0000469187        0.0001707174
  C         0.2804743134       10.2440880909       10.5941086297        0.0000958995       -0.0001067966       -0.0002255781
       2
 i =     4997, time =     2498.500, E =     -1010.0876095711
  C         0.1412127292       10.3893447460        4.8001547674       -0.0003214348        0.0001135920        0.0003826550
  C         0.2163934866       10.3639263097       10.6373468691       -0.0000385409        0.0000359176       -0.0000241942
       2
 i =     5097, time =     2548.500, E =     -1010.0921982749
  C        -0.0679226628       10.2734461803        4.8179856587       -0.0000557740        0.0001034617        0.0000854377
  C         0.1697065019       10.5398693284       10.6043627956        0.0000817145        0.0001230015       -0.0002071557
       2
 i =     5197, time =     2598.500, E =     -1010.0996194196
  C        -0.0657617933       10.2363150136        4.9027056095       -0.0002319846       -0.0000775824        0.0002076022
  C         0.2283930647       10.6455816024       10.6791427847        0.0001816293       -0.0003528960       -0.0000530865
       2
 i =     5297, time =     2648.500, E =     -1010.0895483129
  C        -0.0907110049       10.1323441781        5.0405373287        0.0006066520       -0.0002982531        0.0003151949
  C         0.2409107147       10.3653641405       10.8707473565        0.0001894776       -0.0002588550       -0.0000218535
       2
 i =     5397, time =     2698.500, E =     -1010.1151741192
  C         0.1197815054       10.1512126516        5.0364595967        0.0000553266       -0.0005202915       -0.0003377348
  C         0.2294375019       10.2356006561       10.9514067031       -0.0000037916       -0.0001638515       -0.0000130758
       2
 i =     5497, time =     2748.500, E =     -1010.1127959548
  C         0.2381670840       10.4379688674        5.1789153251        0.0004097752        0.0001225950       -0.0000761537
  C         0.0667982739       10.2147689893       10.8702131144       -0.0000191221       -0.0000118770       -0.0003010103
       2
 i =     5597, time =     2798.500, E =     -1010.0942807401
  C         0.3175621504       10.4316264674        5.2096966866        0.0000895942       -0.0002379936       -0.0002463903
  C        -0.1015390438       10.2127222412       10.7720026239        0.0001007544        0.0000884758       -0.0000433121
       2
 i =     5697, time =     2848.500, E =     -1010.0735601687
  C         0.3909953143       10.5351267238        5.1261996196        0.0001536277       -0.0001534279       -0.0005328768
  C        -0.0947977822       10.2374726389       10.8186574156        0.0000962385        0.0001203851        0.0000256972
       2
 i =     5797, time =     2898.500, E =     -1010.1103878262
  C         0.3685382814       10.5435644922        4.9536253983        0.0000691909       -0.0006230218       -0.0000963764
  C         0.1044758908       10.4563011259       10.7975055662        0.0001963365        0.0002214224        0.0003382338
       2
 i =     5897, time =     2948.500, E =     -1010.0857175279
  C         0.1927849315       10.4278456366        4.7940125058        0.0001866906       -0.0004312105       -0.0001724707
  C         0.3791806674       10.5269235932       10.7755919085        0.0001934836        0.0000972968       -0.0001793053
       2
 i =     5997, time =     2998.500, E =     -1010.0821435593
  C         0.2478438526       10.2879943600        4.9798943944       -0.0002244209       -0.0000445067       -0.0004664311
  C         0.4602396113       10.6594843051       10.5968389501       -0.0002342372        0.0000676275       -0.0000598946
       2
 i =     6097, time =     3048.500, E =     -1010.0684831620
  C         0.1161944336       10.2504001282        4.9531141257        0.0000390272        0.0001939316        0.0000292387
  C         0.3781609094       10.5054663277       10.6320879809       -0.0003135294        0.0001095732        0.0002773725
       2
 i =     6197, time =     3098.500, E =     -1010.0647256854
  C         0.2777974890       10.3746937306        4.9583434132        0.0003141050        0.0001122698       -0.0000006472
  C         0.2099952455       10.4385729734       10.7167711189       -0.0003755211       -0.0002141117        0.0000986831
       2
 i =     6297, time =     3148.500, E =     -1010.1014299226
  C         0.2260182372       10.4237581629        5.0494203478       -0.0003125503        0.0001069258       -0.0000021125
  C         0.2098691928       10.4253234899       10.8074145150        0.0000154616        0.0000678971       -0.0000425063
       2
 i =     6397, time =     3198.500, E =     -1010.0854916318
  C         0.0588166274       10.4922552503        5.0281798141        0.0001964083        0.0005943807       -0.0000173385
  C         0.2348801220       10.3162332678       10.8087101992       -0.0001827987       -0.0000830775       -0.0000312465
       2
 i =     6497, time =     3248.500, E =     -1010.0883250950
  C         0.0129992187       10.3777185936        5.0129071933       -0.0004427388       -0.0000313057       -0.0000242908
  C         0.2356823513       10.1850175775       10.9568505942       -0.0000710060        0.0000102519        0.0001511408
       2
 i =     6597, time =     3298.500, E =     -1010.1072565142
  C         0.1435066604       10.3061975886        5.1012917207        0.0006121324        0.0000386798        0.0004537505
  C         0.1092035742       10.1531377245       10.9471104948       -0.0001030145        0.0001263610       -0.0001589920
       2
 i =     6697, time =     3348.500, E =     -1010.0886153408
  C         0.2685875755       10.2979991175        5.0541528234       -0.0001897289        0.0002493964       -0.0002521442
  C        -0.0565062252       10.1662054818       10.7379218611       -0.0001065575        0.0001197900       -0.0000186902
       2
 i =     6797, time =     3398.500, E =     -1010.0921295598
  C         0.3200983524       10.2858716766        5.0390111997        0.0002240212        0.0002394965        0.0000819089
  C        -0.1326505947       10.4018611252       10.6457676059        0.0002074225        0.0002802623        0.0000289793
       2
 i =     6897, time =     3448.500, E =     -1010.0823855477
  C         0.2480986046       10.2170202639        4.9710110811        0.0000536516        0.0000181940       -0.0000207498
  C         0.0353672436       10.4351036618       10.6544474780        0.0004662024       -0.0000994723       -0.0001121188
       2
 i =     6997, time =     3498.500, E =     -1010.0719375466
  C         0.0820582870       10.1459081059        4.8464516119       -0.0001010397        0.0001443641       -0.0003545477
  C         0.2721258856       10.4939165336       10.7886659456        0.0003673161        0.0001466436       -0.0001368003
       2
 i =     7097, time =     3548.500, E =     -1010.0643652985
  C         0.1099072594       10.4275131505        4.7168521986        0.0001876457        0.0001105135        0.0002812190
  C         0.2785129083       10.4290413907       10.7533794524       -0.0000490186        0.0001400383       -0.0003501665
       2
 i =     7197, time =     3598.500, E =     -1010.1025883094
  C         0.2542398051       10.4264805440        4.8863359664        0.0003429754        0.0001951432        0.0001105061
  C         0.1653661811       10.5010438063       10.6245689866        0.0001989858       -0.0003046337       -0.0002667029
       2
 i =     7297, time =     3648.500, E =     -1010.0791270829
  C         0.5087777585       10.5823568993        5.0534135005        0.0001023275        0.0001716958       -0.0001677212
  C         0.1300038634       10.4520156442       10.6084129719        0.0000416927       -0.0002364682        0.0001169098
       2
 i =     7397, time =     3698.500, E =     -1010.0615575398
  C         0.3936803747       10.4348498725        5.0146830216       -0.0001989986       -0.0000888012        0.0000827683
  C         0.1961163094       10.2613830681       10.7526516260        0.0001975592       -0.0000240753       -0.0000562789
       2
 i =     7497, time =     3748.500, E =     -1010.0702810241
  C         0.2037933410       10.3700551318        5.0041733615       -0.0000063482       -0.0002667122        0.0000150276
  C         0.2500019547       10.1076948460       10.8312564779       -0.0001616880       -0.0000345038       -0.0000931979
       2
 i =     7597, time =     3798.500, E =     -1010.1022222518
  C         0.0450133423       10.4205952459        4.9990263629        0.0000197773       -0.0000251329       -0.0001727365
  C         0.2356328531       10.2410654020       10.8284975362        0.0001237833        0.0002129602       -0.0002421610
       2
 i =     7697, time =     3848.500, E =     -1010.0845288010
  C         0.2110990554       10.4269654997        4.9568428793        0.0003296621        0.0000565140       -0.0004279713
  C         0.3591891395       10.5051942943       10.8403153527        0.0002560939       -0.0000091361       -0.0000114417
       2
 i =     7797, time =     3898.500, E =     -1010.0600415881
  C         0.3526873101       10.3375492015        5.0306613943       -0.0001154422       -0.0004823814       -0.0001960579
  C         0.3659838315       10.5370819467       10.9347570303       -0.0000911294       -0.0000032694       -0.0000524635
       2
 i =     7897, time =     3948.500, E =     -1010.0835109509
  C         0.2000029158       10.0581635277        5.1166572956        0.0001443904       -0.0003449155       -0.0000579732
  C         0.3135570477       10.4833140036       10.8638698966       -0.0000664122       -0.0000277775        0.0000617990
       2
 i =     7997, time =     3998.500, E =     -1010.0763734706
  C         0.0604249268       10.1698606428        5.1321232466       -0.0002032672        0.0000399996        0.0000135529
  C         0.1009060009       10.2649381451       10.8893573203       -0.0002720952       -0.0003269802        0.0000753040
       2
 i =     8097, time =     4048.500, E =     -1010.0725057115
  C         0.1157602085       10.4018875459        5.1988750338        0.0001541325        0.0004328960        0.0000657962
  C        -0.0721779463       10.1607537484       10.9083394268       -0.0000378934        0.0001511373        0.0002875955
       2
 i =     8197, time =     4098.500, E =     -1010.0772853327
  C         0.3195808514       10.6241202143        5.1190175998        0.0000679260        0.0001882464       -0.0005617910
  C        -0.1634232553       10.2548545096       10.8816611356       -0.0003417247        0.0003072364       -0.0000378278
       2
 i =     8297, time =     4148.500, E =     -1010.0759620893
  C         0.2679461212       10.6354956303        5.0342594002       -0.0000853155       -0.0001521596        0.0001416362
  C        -0.2388677022       10.1036448013       10.7481516617        0.0001988136        0.0000037849       -0.0000486047
       2
 i =     8397, time =     4198.500, E =     -1010.0850264278
  C         0.1853410633       10.4332687672        4.9030969058        0.0000842742       -0.0001181166        0.0004246580
  C         0.0048282533       10.2303987340       10.7664409062        0.0001094926        0.0002832510       -0.0000235203
       2
 i =     8497, time =     4248.500, E =     -1010.0830333947
  C        -0.0157592335       10.2572024554        4.8091205954       -0.0004359669        0.0002146335        0.0000084335
  C         0.2067737636       10.3559601473       10.6307203827        0.0001340083        0.0003021393       -0.0000134511
       2
 i =     8597, time =     4298.500, E =     -1010.0981914061
  C        -0.0411647902       10.4271375548        4.7269581569        0.0000281272        0.0004596192        0.0001498453
  C         0.3076624259       10.6589398738       10.5220920479        0.0000175428        0.0001230295        0.0002463139
       2
 i =     8697, time =     4348.500, E =     -1010.0590424180
  C         0.0120284166       10.4140117403        4.8106312884       -0.0002375208        0.0002122509        0.0002916146
  C         0.3942623766       10.5096471468       10.6657333387        0.0001483820       -0.0003208275        0.0000332646
       2
 i =     8797, time =     4398.500, E =     -1010.0740163120
  C         0.0716876467       10.2683554469        5.0309338795       -0.0001401011        0.0001802875        0.0001917368
  C         0.3717175137       10.5033953575       10.7793482435       -0.0002184807        0.0002502748       -0.0000822144
       2
 i =     8897, time =     4448.500, E =     -1010.1079444092
  C         0.1998784132       10.2290589120        5.0613976171        0.0000318224       -0.0001105540        0.0004124938
  C         0.3309426370       10.5173426145       10.8420754539       -0.0000052546        0.0001174722       -0.0000802364
       2
 i =     8997, time =     4498.500, E =     -1010.0890870514
  C         0.3697614341       10.3662174367        5.0586773703        0.0002409221        0.0000183139        0.0001859908
  C         0.2081365737       10.4284491489       10.8946999446       -0.0001396294       -0.0004185420        0.0000854080
       2
 i =     9097, time =     4548.500, E =     -1010.0986891650
  C         0.4870076316       10.4067562552        5.0139630661       -0.0003198883       -0.0001203404       -0.0002282186
  C         0.1511316539       10.1914046758       10.9349285164        0.0001325651       -0.0002325625       -0.0000366402
       2
 i =     9197, time =     4598.500, E =     -1010.1063858665
  C         0.3679471950       10.3110655311        5.0098653980        0.0000664822        0.0002409809       -0.0001625168
  C         0.3204328523       10.1610223450       10.7529793014        0.0001081542       -0.0000411595       -0.0002779255
       2
 i =     9297, time =     4648.500, E =     -1010.0757733655
  C         0.2308386113       10.3876202050        4.9374144418       -0.0001849127       -0.0002969060       -0.0004540240