       2
 i =     1000, time =      500.000, E =     -1010.0846452702
  C         0.0900707306       10.2290478529        5.0156805859        0.0001670242        0.0004009763        0.0004529495
  C         0.2599749228       10.7018250765       10.8956333482        0.0000013797       -0.0000226106        0.0000081420
       2
 i =     1001, time =      500.500, E =     -1010.0865490394
  C         0.0918898037       10.2335748702        5.0206153150        0.0001642932        0.0004214961        0.0004471847
  C         0.2599484551       10.7015104493       10.8956610790       -0.0000067375       -0.0000353777       -0.0000021512
       2
 i =     1002, time =      501.000, E =     -1010.0890420963
  C         0.0936628868       10.2382635722        5.0254579677        0.0001584986        0.0004306594        0.0004362663
  C         0.2598276116       10.7010515676       10.8955863146       -0.0000153532       -0.0000498410       -0.0000106590
       2
 i =     1003, time =      501.500, E =     -1010.0924691990
  C         0.0953595274       10.2430025189        5.0301657054        0.0001501331        0.0004309712        0.0004225498
  C         0.2596123549       10.7004193706       10.8954277409       -0.0000235929       -0.0000677420       -0.0000175082
       2
 i =     1004, time =      502.000, E =     -1010.0969741964
  C         0.0969454133       10.2476863766        5.0346966458        0.0001382328        0.0004213943        0.0004043863
  C         0.2593117739       10.6995704497       10.8952035142       -0.0000307019       -0.0000898344       -0.0000226445
       2
 i =     1005, time =      502.500, E =     -1010.1021576893
  C         0.0983849733       10.2522254093        5.0390163494        0.0001232776        0.0004050610        0.0003840595
  C         0.2589403947       10.6984532007       10.8949321307       -0.0000364506       -0.0001168095       -0.0000260748
       2
 i =     1006, time =      503.000, E =     -1010.1071174340
  C         0.0996425591       10.2565485549        5.0430993406        0.0001050825        0.0003830782        0.0003617854
  C         0.2585142852       10.6970148170       10.8946330341       -0.0000408088       -0.0001483993       -0.0000276739
       2
 i =     1007, time =      503.500, E =     -1010.1107984038
  C         0.1006838016       10.2606057844        5.0469309141        0.0000836793        0.0003568590        0.0003380691
  C         0.2580476442       10.6952067580       10.8943267262       -0.0000439848       -0.0001837586       -0.0000273112
       2
 i =     1008, time =      504.000, E =     -1010.1124287613
  C         0.1014727542       10.2643536144        5.0504934348        0.0000591378        0.0003275979        0.0003131985
  C         0.2575522697       10.6929957311       10.8940356968       -0.0000463121       -0.0002215513       -0.0000248724
       2
 i =     1009, time =      504.500, E =     -1010.1118970784
  C         0.1019773028       10.2677712219        5.0537813983        0.0000317992        0.0002971955        0.0002881048
  C         0.2570346745       10.6903608415       10.8937827014       -0.0000482704       -0.0002604801       -0.0000203554
       2
 i =     1010, time =      505.000, E =     -1010.1098758303
  C         0.1021682219       10.2708534519        5.0567944527        0.0000019609        0.0002673435        0.0002634906
  C         0.2564965672       10.6872988803       10.8935905118       -0.0000503378       -0.0002991651       -0.0000138132
       2
 i =     1011, time =      505.500, E =     -1010.1075995559
  C         0.1020201983       10.2736194653        5.0595453589       -0.0000300348        0.0002397713        0.0002400553
  C         0.2559335148       10.6838164870       10.8934805320       -0.0000529714       -0.0003362251       -0.0000053786
       2
 i =     1012, time =      506.000, E =     -1010.1063176615
  C         0.1015110623       10.2760996299        5.0620468445       -0.0000638239        0.0002155976        0.0002178936
  C         0.2553375579       10.6799423000       10.8934728290       -0.0000564808       -0.0003697108        0.0000047681
       2
 i =     1013, time =      506.500, E =     -1010.1066798926
  C         0.1006228469       10.2783397257        5.0643158874       -0.0000992216        0.0001966734        0.0001979147
  C         0.2546969330       10.6757220951       10.8935849232       -0.0000613487       -0.0003991580        0.0000163879
       2
 i =     1014, time =      507.000, E =     -1010.1084164568
  C         0.0993405419       10.2804019541        5.0663763244       -0.0001356144        0.0001834073        0.0001798028
  C         0.2539955248       10.6712105286       10.8938313227       -0.0000677062       -0.0004222260        0.0000291436
       2
 i =     1015, time =      507.500, E =     -1010.1105263804
  C         0.0976539039       10.2823549761        5.0682522260       -0.0001731198        0.0001769194        0.0001643483
  C         0.2532146726       10.6664784994       10.8942229511       -0.0000760664       -0.0004393861        0.0000428127
       2
 i =     1016, time =      508.000, E =     -1010.1117865593
  C         0.0955565763       10.2842689705        5.0699685673       -0.0002103678        0.0001758333        0.0001505259
  C         0.2523329030       10.6616066471       10.8947671010       -0.0000862057       -0.0004471929        0.0000568207
       2
 i =     1017, time =      508.500, E =     -1010.1112905926
  C         0.0930483631       10.2862044598        5.0715476598       -0.0002476461        0.0001797424        0.0001388763
  C         0.2513273873       10.6566881942       10.8954669145       -0.0000985901       -0.0004468646        0.0000710063
       2
 i =     1018, time =      509.000, E =     -1010.1088702763
  C         0.0901386032       10.2882013527        5.0730068871       -0.0002836420        0.0001860560        0.0001285915
  C         0.2501759611       10.6518301966       10.8963205681       -0.0001129132       -0.0004363994        0.0000848125
       2
 i =     1019, time =      509.500, E =     -1010.1051740745
  C         0.0868403350       10.2902766380        5.0743621217       -0.0003185631        0.0001929146        0.0001197831
  C         0.2488560742       10.6471367890       10.8973231917       -0.0001293447       -0.0004171491        0.0000981383
       2
 i =     1020, time =      510.000, E =     -1010.1013108848
  C         0.0831724542       10.2924198952        5.0756262323       -0.0003505322        0.0001971156        0.0001116980
  C         0.2473475270       10.6427082274       10.8984665986       -0.0001470127       -0.0003880433        0.0001102740
       2
 i =     1021, time =      510.500, E =     -1010.0983611687
  C         0.0791725944       10.2945884573        5.0768054677       -0.0003797299        0.0001971225        0.0001044114
  C         0.2456402341       10.6386485099       10.8997353874       -0.0001656507       -0.0003513683        0.0001211441
       2
 i =     1022, time =      511.000, E =     -1010.0969893330
  C         0.0748656019       10.2967320843        5.0779103026       -0.0004062449        0.0001920029        0.0000979495
  C         0.2437238057       10.6350218052       10.9011167091       -0.0001847364       -0.0003097360        0.0001306263
       2
 i =     1023, time =      511.500, E =     -1010.0974132345
  C         0.0702866890       10.2987881882        5.0789479447       -0.0004289472        0.0001809688        0.0000919954
  C         0.2415994439       10.6318735710       10.9025926131       -0.0002030423       -0.0002650037        0.0001381675
       2
 i =     1024, time =      512.000, E =     -1010.0994399412
  C         0.0654778304       10.3006926976        5.0799236788       -0.0004480287        0.0001645683        0.0000865469
  C         0.2392800996       10.6292220378       10.9041405897       -0.0002198497       -0.0002201998        0.0001435882
       2
 i =     1025, time =      512.500, E =     -1010.1024237801
  C         0.0604889808       10.3023870476        5.0808405951       -0.0004626043        0.0001434166        0.0000813417
  C         0.2367916647       10.6270581351       10.9057326687       -0.0002339463       -0.0001774205        0.0001463294
       2
 i =     1026, time =      513.000, E =     -1010.1053845432
  C         0.0553598592       10.3038294712        5.0817027652       -0.0004730804        0.0001190052        0.0000763717
  C         0.2341632833       10.6253415382       10.9073410707       -0.0002448348       -0.0001389965        0.0001462534
       2
 i =     1027, time =      513.500, E =     -1010.1073205224
  C         0.0501432888       10.3049895460        5.0825107504       -0.0004791169        0.0000926562        0.0000714605
  C         0.2314374244       10.6240184503       10.9089310529       -0.0002518245       -0.0001060670        0.0001430291
       2
 i =     1028, time =      514.000, E =     -1010.1075376860
  C         0.0448837309       10.3058554454        5.0832652838       -0.0004810429        0.0000659421        0.0000665572
  C         0.2286570164       10.6230223317       10.9104684717       -0.0002547364       -0.0000793000        0.0001366266
       2
 i =     1029, time =      514.500, E =     -1010.1057386882
  C         0.0396187427       10.3064322676        5.0839669299       -0.0004795761        0.0000404116        0.0000616730
  C         0.2258641491       10.6222834784       10.9119202516       -0.0002537632       -0.0000587450        0.0001272293
       2
 i =     1030, time =      515.000, E =     -1010.1020458355
  C         0.0343954644       10.3067392425        5.0846140651       -0.0004736437        0.0000173270        0.0000565988
  C         0.2231072484       10.6217375853       10.9132509603       -0.0002482794       -0.0000437077        0.0001146357
       2
 i =     1031, time =      515.500, E =     -1010.0970269094
  C         0.0292573259       10.3068113124        5.0852050840       -0.0004641212       -0.0000018745        0.0000514150
  C         0.2204327962       10.6213273308       10.9144280197       -0.0002387878       -0.0000334930        0.0000992950
       2
 i =     1032, time =      516.000, E =     -1010.0916555387
  C         0.0242406854       10.3066982286        5.0857390041       -0.0004515666       -0.0000159001        0.0000461733
  C         0.2178826713       10.6210047719       10.9154234926       -0.0002256900       -0.0000271670        0.0000816343
       2
 i =     1033, time =      516.500, E =     -1010.0871240795
  C         0.0193759670       10.3064633792        5.0862154657       -0.0004358534       -0.0000235291        0.0000408718
  C         0.2154941577       10.6207328518       10.9162143734       -0.0002091073       -0.0000236703        0.0000620218
       2
 i =     1034, time =      517.000, E =     -1010.0845014614
  C         0.0147031580       10.3061833548        5.0866333772       -0.0004163167       -0.0000236647        0.0000354795
  C         0.2133068980       10.6204868074       10.9167806793       -0.0001889954       -0.0000218791        0.0000408432
       2
 i =     1035, time =      517.500, E =     -1010.0843518451
  C         0.0102671746       10.3059456073        5.0869917393       -0.0003939584       -0.0000156072        0.0000301245
  C         0.2113590372       10.6202541486       10.9171080013       -0.0001661876       -0.0000207339        0.0000187443
       2
 i =     1036, time =      518.000, E =     -1010.0864641547
  C         0.0060852435       10.3058419452        5.0872923574       -0.0003689291        0.0000008550        0.0000248652
  C         0.2096715118       10.6200332490       10.9171907144       -0.0001412712       -0.0000191121       -0.0000036322
       2
 i =     1037, time =      518.500, E =     -1010.0898962682
  C         0.0021896050       10.3059643282        5.0875361540       -0.0003415871        0.0000252572        0.0000197347
  C         0.2082659545       10.6198356962       10.9170284761       -0.0001149663       -0.0000159074       -0.0000257179
       2
 i =     1038, time =      519.000, E =     -1010.0932832497
  C        -0.0013877180       10.3063945014        5.0877240973       -0.0003117138        0.0000562848        0.0000146724
  C         0.2071563731       10.6196852402       10.9166280784       -0.0000878567       -0.0000100334       -0.0000469518
       2
 i =     1039, time =      519.500, E =     -1010.0952528661
  C        -0.0046310183       10.3071958976        5.0878572017       -0.0002800102        0.0000917427        0.0000095885
  C         0.2063435580       10.6196161556       10.9160011228       -0.0000609149       -0.0000005908       -0.0000668209
       2
 i =     1040, time =      520.000, E =     -1010.0950219603
  C        -0.0075132126       10.3084014606        5.0879338552       -0.0002460069        0.0001286473        0.0000042093
  C         0.2058238015       10.6196723163       10.9151663060       -0.0000346792        0.0000130967       -0.0000847865
       2
 i =     1041, time =      520.500, E =     -1010.0929715454
  C        -0.0100122851       10.3100099871        5.0879492780       -0.0002100705        0.0001638027       -0.0000018125
  C         0.2055849693       10.6199026379       10.9141464647       -0.0000097946        0.0000312164       -0.0001005001
       2
 i =     1042, time =      521.000, E =     -1010.0905546440
  C        -0.0121089387       10.3119849846        5.0878942024       -0.0001725836        0.0001942600       -0.0000089128
  C         0.2056095252       10.6203552387       10.9129676583        0.0000133865        0.0000533525       -0.0001137750
       2
 i =     1043, time =      521.500, E =     -1010.0895449206
  C        -0.0137862411       10.3142579500        5.0877543777       -0.0001339645        0.0002177882       -0.0000175592
  C         0.2058776979       10.6210693183       10.9116584997        0.0000348959        0.0000784183       -0.0001246129
       2
 i =     1044, time =      522.000, E =     -1010.0910570257
  C        -0.0150367037       10.3167446981        5.0875104489       -0.0000945180        0.0002324071       -0.0000280819
  C         0.2063721678       10.6220690544       10.9102442705        0.0000549537        0.0001043440       -0.0001327889
       2
 i =     1045, time =      522.500, E =     -1010.0950144667
  C        -0.0158541850       10.3193427453        5.0871399788       -0.0000551643        0.0002384516       -0.0000408472
  C         0.2070800213       10.6233522424       10.9087532342        0.0000743911        0.0001291902       -0.0001389505
       2
 i =     1046, time =      523.000, E =     -1010.1002902838
  C        -0.0162430307       10.3219591347        5.0866172065       -0.0000163405        0.0002357083       -0.0000558766
  C         0.2079989445       10.6248941726       10.9072057150        0.0000938210        0.0001502588       -0.0001429947
       2
 i =     1047, time =      523.500, E =     -1010.1052928794
  C        -0.0162118148       10.3245014778        5.0859170585        0.0000213913        0.0002254573       -0.0000732059
  C         0.2091333956       10.6266408187       10.9056236385        0.0001140997        0.0001656635       -0.0001453342
       2
 i =     1048, time =      524.000, E =     -1010.1087189749
  C        -0.0157750995       10.3268909824        5.0850158368        0.0000575953        0.0002085548       -0.0000925243
  C         0.2104948606       10.6285180394       10.9040265475        0.0001355164        0.0001736179       -0.0001458430
       2
 i =     1049, time =      524.500, E =     -1010.1099568237
  C        -0.0149516231       10.3290646824        5.0838926153        0.0000918493        0.0001864198       -0.0001134309
  C         0.2120985104       10.6304395992       10.9024325755        0.0001581038        0.0001733052       -0.0001445400
       2
 i =     1050, time =      525.000, E =     -1010.1091192233
  C        -0.0137639469       10.3309728723        5.0825321293        0.0001242075        0.0001609202       -0.0001357766
  C         0.2139567371       10.6323127680       10.9008616667        0.0001820113        0.0001650920       -0.0001417559
       2
 i =     1051, time =      525.500, E =     -1010.1068052137
  C        -0.0122357211       10.3325833387        5.0809237458        0.0001540029        0.0001327037       -0.0001584020
  C         0.2160783405       10.6340494757       10.8993329639        0.0002058295        0.0001487399       -0.0001367773
       2
 i =     1052, time =      526.000, E =     -1010.1038342159
  C        -0.0103944012       10.3338763961        5.0790663322        0.0001815594        0.0001036732       -0.0001811096
  C         0.2184602350       10.6355671593       10.8978690121        0.0002293191        0.0001257183       -0.0001300041
       2
 i =     1053, time =      526.500, E =     -1010.1010459502
  C        -0.0082643193       10.3348510694        5.0769621819        0.0002066317        0.0000751127       -0.0002030237
  C         0.2210944307       10.6367994183       10.8964892741        0.0002512888        0.0000971224       -0.0001212887
       2
 i =     1054, time =      527.000, E =     -1010.0991893012
  C        -0.0058745991       10.3355193891        5.0746254499        0.0002292120        0.0000484330       -0.0002235002
  C         0.2239568541       10.6376915870       10.8952159779        0.0002708201        0.0000643511       -0.0001107077
       2
 i =     1055, time =      527.500, E =     -1010.0987375474
  C        -0.0032474457       10.3359111456        5.0720703243        0.0002494239        0.0000251051       -0.0002420790
  C         0.2270220004       10.6382079014       10.8940661616        0.0002872217        0.0000289869       -0.0000985135
       2
 i =     1056, time =      528.000, E =     -1010.0997040097
  C        -0.0004127683       10.3360691361        5.0693244564        0.0002675176        0.0000063409       -0.0002585171
  C         0.2302463738       10.6383263366       10.8930587498        0.0003000064       -0.0000076006       -0.0000849428
       2
 i =     1057, time =      528.500, E =     -1010.1015731871
  C         0.0026050443       10.3360498666        5.0664147368        0.0002825475       -0.0000068426       -0.0002715591
  C         0.2335852491       10.6380416231       10.8922078652        0.0003074864       -0.0000439250       -0.0000699586
       2
 i =     1058, time =      529.000, E =     -1010.1034577775
  C         0.0057737528       10.3359193138        5.0633785324        0.0002951754       -0.0000138433       -0.0002816680
  C         0.2369789441       10.6373645757       10.8915269704        0.0003099011       -0.0000786185       -0.0000540548
       2
 i =     1059, time =      529.500, E =     -1010.1044609764
  C         0.0090639867       10.3357469507        5.0602513592        0.0003051348       -0.0000147472       -0.0002885917
  C         0.2403664162       10.6363213153       10.8910250534        0.0003065882       -0.0001103079       -0.0000374771
       2
 i =     1060, time =      530.000, E =     -1010.1040293340
  C         0.0124491506       10.3355966909        5.0570650464        0.0003125454       -0.0000105011       -0.0002926165
  C         0.2436861383       10.6349513831       10.8907070876        0.0002974234       -0.0001377627       -0.0000205857
       2
 i =     1061, time =      530.500, E =     -1010.1022914116
  C         0.0158989064       10.3355173068        5.0538522554        0.0003169402       -0.0000029010       -0.0002935986
  C         0.2468706397       10.6333086421       10.8905748725        0.0002818412       -0.0001596811       -0.0000036950
       2
 i =     1062, time =      531.000, E =     -1010.1001749052
  C         0.0193828673       10.3355332260        5.0506419745        0.0003188764        0.0000055651       -0.0002923987
  C         0.2498519923       10.6314580322       10.8906262511        0.0002604101       -0.0001754920        0.0000128104
       2
 i =     1063, time =      531.500, E =     -1010.0990037441
  C         0.0228756581       10.3356390670        5.0474548126        0.0003187939        0.0000121829       -0.0002897252
  C         0.2525681980       10.6294690210       10.8908551544        0.0002337146       -0.0001850606        0.0000286122
       2
 i =     1064, time =      532.000, E =     -1010.0997766364
  C         0.0263532979       10.3357996048        5.0443071314        0.0003158325        0.0000144245       -0.0002850195
  C         0.2549621629       10.6274116811       10.8912518567        0.0002016307       -0.0001880762        0.0000432764
       2
 i =     1065, time =      532.500, E =     -1010.1026934607
  C         0.0297889387       10.3359548066        5.0412159994        0.0003112722        0.0000105080       -0.0002795666
  C         0.2569817079       10.6253522080       10.8918024342        0.0001657753       -0.0001861463        0.0000566025
       2
 i =     1066, time =      533.000, E =     -1010.1072149172
  C         0.0331607426       10.3360294113        5.0381930806        0.0003047602       -0.0000005281       -0.0002730952
  C         0.2585876257       10.6233407093       10.8924897398        0.0001268064       -0.0001805427        0.0000682257
       2
 i =     1067, time =      533.500, E =     -1010.1124272585
  C         0.0364556331       10.3359432547        5.0352419833        0.0002968387       -0.0000187087       -0.0002660980
  C         0.2597556260       10.6214027977       10.8932948857        0.0000860176       -0.0001734871        0.0000779197
       2
 i =     1068, time =      534.000, E =     -1010.1173162867
  C         0.0396576919       10.3356199318        5.0323689574        0.0002879553       -0.0000434200       -0.0002589635
  C         0.2604703050       10.6195435721       10.8941951798        0.0000443853       -0.0001672248        0.0000855212
       2
 i =     1069, time =      534.500, E =     -1010.1209148587
  C         0.0427558685       10.3349932584        5.0295760665        0.0002775941       -0.0000734106       -0.0002512074
  C         0.2607267406       10.6177440501       10.8951660226        0.0000025886       -0.0001631866        0.0000905865
       2
 i =     1070, time =      535.000, E =     -1010.1224786648
  C         0.0457305014       10.3340139592        5.0268733986        0.0002659942       -0.0001072317       -0.0002430140
  C         0.2605269354       10.6159736058       10.8961769040       -0.0000387405       -0.0001627205        0.0000929049
       2
 i =     1071, time =      535.500, E =     -1010.1217419878
  C         0.0485739810       10.3326477698        5.0242606014        0.0002535506       -0.0001432825       -0.0002346864
  C         0.2598793658       10.6141848518       10.8971981390       -0.0000790980       -0.0001666086        0.0000923395
       2
 i =     1072, time =      536.000, E =     -1010.1190538910
  C         0.0512728121       10.3308819762        5.0217434353        0.0002394978       -0.0001792973       -0.0002254284
  C         0.2587979492       10.6123317416       10.8981953354       -0.0001178127       -0.0001742334        0.0000883975
       2
 i =     1073, time =      536.500, E =     -1010.1153325620
  C         0.0538174597       10.3287223000        5.0193251540        0.0002256417       -0.0002146921       -0.0002168155
  C         0.2573000168       10.6103702480       10.8991334820       -0.0001553300       -0.0001862517        0.0000815934
       2
 i =     1074, time =      537.000, E =     -1010.1117784182
  C         0.0562062145       10.3261879741        5.0170030074        0.0002112091       -0.0002471348       -0.0002079868
  C         0.2554018328       10.6082595574       10.8999792839       -0.0001910392       -0.0002011646        0.0000715741
       2
 i =     1075, time =      537.500, E =     -1010.1095855091
  C         0.0584353256       10.3233189564        5.0147777392        0.0001962745       -0.0002748093       -0.0001988488
  C         0.2531231432       10.6059719950       10.9006983760       -0.0002246308       -0.0002178228        0.0000583967
       2
 i =     1076, time =      538.000, E =     -1010.1096171089
  C         0.0605001852       10.3201758697        5.0126527186        0.0001813574       -0.0002967037       -0.0001897650
  C         0.2504875026       10.6034941663       10.9012568491       -0.0002564625       -0.0002355723        0.0000423241
       2
 i =     1077, time =      538.500, E =     -1010.1120564979
  C         0.0623991780       10.3168340273        5.0106301240        0.0001659460       -0.0003103626       -0.0001800351
  C         0.2475177494       10.6008231887       10.9016234369       -0.0002856224       -0.0002525183        0.0000234306
       2
 i =     1078, time =      539.000, E =     -1010.1162032645
  C         0.0641294997       10.3133881009        5.0087152709        0.0001504596       -0.0003149878       -0.0001699190
  C         0.2442408119       10.5979714779       10.9017692878       -0.0003124707       -0.0002679380        0.0000021042
       2
 i =     1079, time =      539.500, E =     -1010.1206127296
  C         0.0656905207       10.3099435890        5.0069131027        0.0001347934       -0.0003091896       -0.0001591109
  C         0.2406823727       10.5949619767       10.9016694673       -0.0003365012       -0.0002803368       -0.0000212664
       2
 i =     1080, time =      540.000, E =     -1010.1236218439
  C         0.0670784900       10.3066236954        5.0052342664        0.0001192909       -0.0002931284       -0.0001478477
  C         0.2368788882       10.5918383102       10.9013040255       -0.0003583044       -0.0002891433       -0.0000463027
       2
 i =     1081, time =      540.500, E =     -1010.1240551745
  C         0.0682981825       10.3035358950        5.0036812001        0.0001039895       -0.0002669039       -0.0001360219
  C         0.2328499535       10.5886413968       10.9006573046       -0.0003773935       -0.0002929682       -0.0000724060
       2
 i =     1082, time =      541.000, E =     -1010.1217546649
  C         0.0693534147       10.3007847755        5.0022585851        0.0000892408       -0.0002323017       -0.0001240264
  C         0.2286228447       10.5854291955       10.8997200362       -0.0003942501       -0.0002913033       -0.0000990938
       2
 i =     1083, time =      541.500, E =     -1010.1178343537
  C         0.0702514430       10.2984513867        5.0009665691        0.0000752346       -0.0001915943       -0.0001122044
  C         0.2242207960       10.5822654906       10.8984883867       -0.0004087483       -0.0002833974       -0.0001257561
       2
 i =     1084, time =      542.000, E =     -1010.1143155447
  C         0.0709996676       10.2965923865        4.9998033749        0.0000621033       -0.0001476091       -0.0001010278
  C         0.2196787798       10.5792280097       10.8969682929       -0.0004205803       -0.0002687516       -0.0001517598
       2
 i =     1085, time =      542.500, E =     -1010.1130351646
  C         0.0716106519       10.2952207755        4.9987554482        0.0000501511       -0.0001039536       -0.0000914384
  C         0.2150158642       10.5763835228       10.8951669318       -0.0004305622       -0.0002482231       -0.0001768715
       2
 i =     1086, time =      543.000, E =     -1010.1145468027
  C         0.0720971592       10.2943174992        4.9978023668        0.0000393431       -0.0000632539       -0.0000840407
  C         0.2102564965       10.5737959763       10.8930976933       -0.0004380749       -0.0002223723       -0.0002005456
       2
 i =     1087, time =      543.500, E =     -1010.1178901942
  C         0.0724719586       10.2938360087        4.9969156135        0.0000296878       -0.0000276284       -0.0000796329
  C         0.2054254493       10.5715153077       10.8907765514       -0.0004437270       -0.0001931128       -0.0002229571
       2
 i =     1088, time =      544.000, E =     -1010.1213617879
  C         0.0727466730       10.2937130418        4.9960601462        0.0000209559        0.0000020043       -0.0000784670
  C         0.2005485718       10.5695710254       10.8882198047       -0.0004460949       -0.0001619245       -0.0002435290
       2
 i =     1089, time =      544.500, E =     -1010.1235930061
  C         0.0729304795       10.2938798633        4.9951987323        0.0000129741        0.0000254661       -0.0000807171
  C         0.1956647626       10.5679723526       10.8854480660       -0.0004445193       -0.0001310155       -0.0002621546
       2
 i =     1090, time =      545.000, E =     -1010.1241379279
  C         0.0730304500       10.2942700506        4.9942946570        0.0000055721        0.0000432622       -0.0000862140
  C         0.1908258001       10.5667053823       10.8824858152       -0.0004379117       -0.0001024083       -0.0002785230
       2
 i =     1091, time =      545.500, E =     -1010.1232913070
  C         0.0730524054       10.2948265126        4.9933122271       -0.0000013330        0.0000565091       -0.0000949122
  C         0.1860825295       10.5657314896       10.8793535218       -0.0004271502       -0.0000782401       -0.0002934774
       2
 i =     1092, time =      546.000, E =     -1010.1215438363
  C         0.0730012976       10.2955058650        4.9922189944       -0.0000077777        0.0000662887       -0.0001060163
  C         0.1814843234       10.5649943265       10.8760676698       -0.0004105843       -0.0000594582       -0.0003060638
       2
 i =     1093, time =      546.500, E =     -1010.1192930402
  C         0.0728821807       10.2962773230        4.9909919303       -0.0000137228        0.0000740284       -0.0001190287