      12
 i =        0, time =        0.000, E =       -68.5326334251
  C         7.4160838756        6.7603642726        7.6560726509       -0.0004232035        0.0005827097       -0.0003122725
  C         8.5047475797        5.6298138591        7.4403647551        0.0002717987       -0.0002851664        0.0000120578
  C         7.8470437469        8.0716318747        6.9592341814        0.0002190723       -0.0001220138       -0.0001038004
  O         7.2341559780        8.2834310135        5.7032012998       -0.0000851256        0.0002120556       -0.0002668085
  O         8.6556988490        8.8397615041        7.3181740454        0.0001048259       -0.0003571931        0.0000898065
  H         7.6956970806        9.1134050404        5.4602951980        0.0003730105        0.0000373775        0.0013294180
  H         8.1991666652        4.7034500485        7.8668827009       -0.0001886835       -0.0001446755       -0.0012115144
  H         8.7107731825        5.4443866310        6.3760650572        0.0003408381        0.0009197197        0.0014520189
  H         9.4964421299        5.8637706967        7.8514454971        0.0017175142        0.0002311857        0.0007806492
  H         7.3039739480        7.1353281051        8.6712791483        0.0008641747       -0.0001586019        0.0000799454
  O         6.1621399167        6.2109131986        7.2140316329       -0.0002345895       -0.0000601644        0.0002927715
  H         6.2439534219        6.3956222912        6.2177370352       -0.0005192676        0.0002784318        0.0005415054
      12
 i =     1000, time =      500.000, E =       -68.5260224454
  C         7.3055003270        6.7708913813        7.6456779558        0.0002085084       -0.0001969409        0.0003089471
  C         7.0931988968        5.4440094592        6.8568978482       -0.0003989900        0.0000228446       -0.0001760410
  C         8.2061526060        7.7332463047        6.7335663113       -0.0000497870       -0.0003004367       -0.0004488081
  O         7.5334879400        8.4104103088        5.7766513859        0.0001089205        0.0003203713        0.0000413669
  O         9.4369475807        7.8836123308        6.9573381565        0.0002020696        0.0000209462       -0.0000957084
  H         8.1416693364        9.0070643828        5.2680083044        0.0001729486        0.0011566222        0.0006461371
  H         6.4166094302        4.7020416122        7.3224720567        0.0000393707        0.0002140063        0.0018152573
  H         6.8680444382        5.6654702050        5.8191693226       -0.0002011508       -0.0004446225        0.0009461631
  H         8.0749018380        4.9140204573        6.8637071434        0.0001054238        0.0004415757        0.0011266377
  H         7.8943255928        6.5655522045        8.6212393010       -0.0010638974       -0.0004635405        0.0005830501
  O         6.2592614909        7.4496569814        8.1706331297       -0.0001188407       -0.0000401501       -0.0000538686
  H         5.3745305870        7.3371637858        7.7053486417        0.0007736958       -0.0000313238        0.0004076462
      12
 i =     2000, time =     1000.000, E =       -68.5327924547
  C         7.2708417599        6.7399007277        7.5697879479       -0.0003442392       -0.0001169138        0.0001328007
  C         5.8270061018        6.5747077491        6.9212894487        0.0000242011        0.0003942341       -0.0002028230
  C         8.2573275364        7.3594993609        6.4523344443        0.0001735528       -0.0004204998       -0.0002995236
  O         8.0939448119        8.7671051007        6.2687800768       -0.0002016692        0.0002468502        0.0000817355
  O         9.1077575633        6.6078518517        6.0032013795       -0.0000863694       -0.0001557766        0.0001280559
  H         8.8703771512        9.0949844710        5.7570866795       -0.0000598801       -0.0014012680       -0.0002336982
  H         5.1542537065        6.1458388186        7.7306423565        0.0009056778       -0.0009641061       -0.0009530926
  H         5.4731040311        7.5169019247        6.5731697279       -0.0011742965        0.0011732453        0.0010293714
  H         5.9998983065        5.8727239400        6.0691238038        0.0003489934        0.0007281643       -0.0000990161
  H         7.7662188618        5.7716641388        7.7775066880        0.0020081870       -0.0004990337       -0.0007753278
  O         7.1357570259        7.5353621811        8.7999831007        0.0003013732        0.0001630177        0.0000653595
  H         6.7372100120        8.3878345068        8.5367570783       -0.0005363061       -0.0013690974        0.0011159318
      12
 i =     2997, time =     1498.500, E =       -68.5324280370
  C         7.1892606329        6.9329382496        7.6714825360       -0.0001423669       -0.0000540358       -0.0001596840
  C         5.7262697082        7.2357035825        7.3904546290       -0.0000556164        0.0001876807        0.0003031337
  C         7.9999631407        7.1582854198        6.3077474947        0.0001900350       -0.0002595740        0.0001002155
  O         9.3082664605        7.5763887243        6.6892952727        0.0001185004       -0.0000450680        0.0002371772
  O         7.5440891163        7.0275751814        5.1909699826       -0.0002253113        0.0001107901       -0.0000946178
  H         9.6889610264        7.8458576845        5.8306704560       -0.0004764701        0.0003722936        0.0000185438
  H         5.2044465167        7.4979817928        8.3041879083       -0.0002453609        0.0003243087       -0.0009076639
  H         5.6830883043        8.1167671941        6.7713304180       -0.0014364926       -0.0008159270       -0.0011115070
  H         5.1186190813        6.4527263435        6.8893153938       -0.0001071115        0.0005465712        0.0002774482
  H         7.4005562650        5.8256873011        8.0110585157        0.0003295497       -0.0012983925       -0.0017987496
  O         7.7288944604        7.7257270957        8.7574497845        0.0002415149        0.0001531416       -0.0000282600
  H         8.2414728380        8.4407880379        8.3799584640       -0.0001289263       -0.0011209036       -0.0011780406
      12
 i =     3997, time =     1998.500, E =       -68.5267496100
  C         7.1450698976        7.1319511675        7.7149840191        0.0001059075       -0.0000035868       -0.0002491325
  C         6.5007428489        8.5634042453        7.9128500633        0.0002325709        0.0000318061        0.0002847314
  C         7.7046769478        7.0048305157        6.2750826344       -0.0001632991        0.0001488025        0.0001926641
  O         9.0928882651        7.0402110314        6.1142054424       -0.0001130552       -0.0000801592        0.0000215234
  O         6.9575893283        7.1846608093        5.2853453800        0.0001092269       -0.0000944102        0.0000173533
  H         9.0925842743        6.8402622992        5.1374738281       -0.0009754616        0.0004651941       -0.0002276076
  H         5.6048760549        8.4083566060        8.5613945815        0.0000150984        0.0004697721        0.0007796247
  H         7.2410962234        9.2744351444        8.4098507930        0.0008808009       -0.0002503577        0.0000365104
  H         6.1095665414        8.8852803826        6.9738514485        0.0005295054       -0.0012032424       -0.0004123909
  H         6.1938392582        6.4671961010        7.7293576318       -0.0009712371        0.0000172385       -0.0002844876
  O         8.1256643687        6.9656067576        8.7481126001       -0.0001029959        0.0001277793       -0.0001898696
  H         8.3257208421        6.0072429920        8.8643968406        0.0001295017       -0.0008652945       -0.0002148840
      12
 i =     4997, time =     2498.500, E =       -68.5378497975
  C         7.2930295459        7.4999096016        7.7173265633        0.0001454386       -0.0002207136        0.0003923070
  C         7.8917895141        8.8825842613        8.2239603979       -0.0000687985       -0.0000255097       -0.0002053910
  C         7.3668142690        7.1346330743        6.2412148252        0.0000210066       -0.0001021890        0.0000155026
  O         8.5061942975        6.4140408713        5.8937893823       -0.0001239795        0.0000915976       -0.0002478502
  O         6.5944681595        7.5598444717        5.4249328852        0.0001629346        0.0001531873       -0.0000614428
  H         8.5441754528        6.3550703329        4.9063925461       -0.0008096279       -0.0012296430        0.0001340151
  H         7.4283354602        9.0387180236        9.2259373863        0.0004378703        0.0008500118       -0.0010023190
  H         8.9667165784        8.7849715786        8.3292101537       -0.0006393686       -0.0001254961        0.0008292370
  H         7.7099097202        9.7859321659        7.5575207300        0.0005743483        0.0007039485       -0.0001532501
  H         6.2562304807        7.5498526847        8.0237000809       -0.0010842511        0.0009262509        0.0006771622
  O         7.8549809421        6.4798790273        8.5709127425       -0.0000241999       -0.0001128887        0.0001573926
  H         8.8004655343        6.2903968221        8.2700396440        0.0001431084        0.0009178892       -0.0005643161
      12
 i =     5997, time =     2998.500, E =       -68.5336693770
  C         7.5340025581        7.5984070742        7.7478790011       -0.0001410964        0.0001708052        0.0001220255
  C         8.9831678580        8.2914625015        7.8239723391        0.0002200914       -0.0000432313        0.0000289784
  C         7.2456905940        7.3137673021        6.3181473252       -0.0001030244       -0.0001475307        0.0001560648
  O         8.0616866249        6.3112432750        5.8589148784        0.0000253037       -0.0001474906       -0.0000143609
  O         6.4916534823        7.9530442258        5.5877375362        0.0000503051        0.0001025081       -0.0000343429
  H         7.9847973279        6.2876302854        4.8832289058       -0.0009586711        0.0008736147       -0.0002332929
  H         8.9624305652        9.0876088514        8.5594836233       -0.0003814955        0.0004899409       -0.0002885006
  H         9.7453575030        7.6535451576        8.1267219302       -0.0008804648       -0.0011351426        0.0003793012
  H         9.3387025780        8.6545343848        6.8094150052        0.0001521055       -0.0008047442        0.0001680777
  H         6.8438996460        8.3677689915        8.0544200638       -0.0013086076        0.0002207717        0.0000327160
  O         7.2928268671        6.5465966649        8.7395969003        0.0001925319        0.0000432480       -0.0001682462
  H         7.9017399824        5.7936083657        8.5752061714       -0.0005249138        0.0005764353       -0.0002685013
      12
 i =     6994, time =     3497.000, E =       -68.5333563252
  C         7.9127966415        7.6154319065        7.6962403201        0.0002274623        0.0000331142        0.0001573208
  C         9.4906279961        7.5267106491        7.6035928746       -0.0000067171       -0.0001774857       -0.0003121507
  C         7.2511053176        7.5511947523        6.3741479289        0.0000832687       -0.0002224998       -0.0002454890
  O         6.8772562334        6.1945007055        6.1522348775        0.0000532123        0.0002005131        0.0000814672
  O         7.0527397430        8.4699981610        5.6163618717       -0.0001071438        0.0000414387        0.0001321916
  H         6.7733908950        6.1433711508        5.1659934824        0.0008487706        0.0007695922       -0.0002750124
  H         9.8329171587        7.2261022784        8.6144559949       -0.0005429281       -0.0001558926       -0.0001910413
  H         9.8254279258        6.7938819742        6.9040280495        0.0004606311        0.0002240119        0.0015189641
  H         9.7534169354        8.5913449402        7.2727848625       -0.0002145775       -0.0004748456       -0.0007700019
  H         7.6939827485        8.6023409716        8.1568108328        0.0000603466       -0.0003413033       -0.0005184352
  O         7.2334201007        6.6981839333        8.6165968987       -0.0001746238        0.0000002121        0.0000988508
  H         7.1653754652        5.8271569144        8.2363033286       -0.0006475665        0.0005208609        0.0000917240
      12
 i =     7994, time =     3997.000, E =       -68.5392016681
  C         8.0923575656        7.4614496641        7.7542828022       -0.0001521337        0.0001486022       -0.0003273631
  C         9.3667512729        6.7265838773        7.3038324764       -0.0004013955       -0.0000664617        0.0001486614
  C         7.2474069811        7.6937039687        6.3891730018        0.0002161828       -0.0000308967       -0.0001149684
  O         6.0589012425        6.9948489985        6.3603545242        0.0000098865        0.0001918481       -0.0000076760
  O         7.7000306512        8.3595287631        5.4592278469        0.0001034467       -0.0000658839        0.0001063040
  H         5.5299786593        7.0349898595        5.5392201336        0.0003538704        0.0001512933        0.0002200385
  H        10.0819093019        6.7461095497        8.1298784526        0.0010852780        0.0005325485       -0.0016780549
  H         9.1229905436        5.7258162395        6.9825833757       -0.0004549440        0.0003543452        0.0002207167
  H         9.8978932994        7.2462120399        6.4679602537       -0.0009012870       -0.0003215375        0.0004013294
  H         8.3441459501        8.4961670361        8.1579272572       -0.0012690638       -0.0007669733       -0.0010650763
  O         7.4357767144        6.7423616102        8.7812262329        0.0002047371       -0.0001057091        0.0002706418
  H         6.9723313942        6.0056561280        8.3506097416        0.0001757051       -0.0008556074       -0.0004375005
      12
 i =     8994, time =     4497.000, E =       -68.5294128752
  C         8.3291562291        7.0249433541        7.4543959198        0.0000028871        0.0000967318       -0.0000250786
  C         8.6391797180        5.5952674852        7.1822021210       -0.0001194699       -0.0001351810       -0.0000095207
  C         7.4043923589        7.7736525660        6.3999299655       -0.0005158945        0.0001446759        0.0000287858
  O         5.9531473175        7.7169361958        6.6801184801       -0.0000868913       -0.0000288304        0.0000170309
  O         7.8176906008        8.3975908557        5.4586361935        0.0002195042       -0.0001279430       -0.0000974046
  H         5.6040680678        8.4297189410        6.1039639657        0.0006449228        0.0010841275        0.0002042944
  H         9.0759188183        5.0520179157        8.0098051791       -0.0002847792        0.0000404984        0.0009001115
  H         7.7571460563        5.0296049371        6.9981297617       -0.0001014381       -0.0009475642       -0.0010630550
  H         9.1227223712        5.4991906725        6.2080849831       -0.0000404208        0.0002321738        0.0005402831
  H         9.1786336996        7.6661118149        7.4389036659        0.0009280671        0.0009190119        0.0016311345
  O         7.8117697862        7.2831615047        8.7693979340        0.0002858127       -0.0000527655       -0.0000402610
  H         7.0104242403        6.6882086771        8.9447324712       -0.0002805059        0.0007611501       -0.0001963568
