      12
i =        0, time =        0.000, E =       -68.5326334251
  C         7.4160838756        6.7603642726        7.6560726509       -0.0004038469        0.0005706649       -0.0003163939
  C         8.5047475797        5.6298138591        7.4403647551        0.0003513472       -0.0002413818        0.0000191121
  C         7.8470437469        8.0716318747        6.9592341814        0.0001810544       -0.0001102685       -0.0000986383
  O         7.2341559780        8.2834310135        5.7032012998       -0.0001173914        0.0001961763       -0.0002691113
  O         8.6556988490        8.8397615041        7.3181740454        0.0000231223       -0.0003054123        0.0001077124
  H         7.6956970806        9.1134050404        5.4602951980        0.0003018263        0.0000455856        0.0013354706
  H         8.1991666652        4.7034500485        7.8668827009       -0.0000677381       -0.0001175730       -0.0012110333
  H         8.7107731825        5.4443866310        6.3760650572        0.0004437736        0.0009768976        0.0014612670
  H         9.4964421299        5.8637706967        7.8514454971        0.0017797934        0.0003241483        0.0008013756
  H         7.3039739480        7.1353281051        8.6712791483        0.0008511730       -0.0001791396        0.0000753875
  O         6.1621399167        6.2109131986        7.2140316329       -0.0001815503       -0.0001346069        0.0002706618
  H         6.2439534219        6.3956222912        6.2177370352       -0.0004625136        0.0002108928        0.0005209806
      12
i =     1000, time =      500.000, E =       -68.5260224454
  C         7.3055003270        6.7708913813        7.6456779558        0.0002218562       -0.0002091174        0.0003048825
  C         7.0931988968        5.4440094592        6.8568978482       -0.0003101815       -0.0000020602       -0.0001790043
  C         8.2061526060        7.7332463047        6.7335663113       -0.0000649265       -0.0002741965       -0.0004404692
  O         7.5334879400        8.4104103088        5.7766513859        0.0000793073        0.0003119256        0.0000353345
  O         9.4369475807        7.8836123308        6.9573381565        0.0001760026        0.0001050647       -0.0000661576
  H         8.1416693364        9.0070643828        5.2680083044        0.0001246681        0.0011745106        0.0006486750
  H         6.4166094302        4.7020416122        7.3224720567        0.0001543447        0.0001594384        0.0018030459
  H         6.8680444382        5.6654702050        5.8191693226       -0.0001042608       -0.0004837625        0.0009384085
  H         8.0749018380        4.9140204573        6.8637071434        0.0002186821        0.0004622074        0.0011429714
  H         7.8943255928        6.5655522045        8.6212393010       -0.0010582793       -0.0004448496        0.0005901481
  O         6.2592614909        7.4496569814        8.1706331297       -0.0001462422       -0.0000989092       -0.0000789156
  H         5.3745305870        7.3371637858        7.7053486417        0.0007597363       -0.0001328014        0.0003673676
      12
i =     2000, time =     1000.000, E =       -68.5327924547
  C         7.2708417599        6.7399007277        7.5697879479       -0.0003364275       -0.0001271214        0.0001264582
  C         5.8270061018        6.5747077491        6.9212894487        0.0000562247        0.0003222246       -0.0002473288
  C         8.2573275364        7.3594993609        6.4523344443        0.0001869838       -0.0003984884       -0.0002830408
  O         8.0939448119        8.7671051007        6.2687800768       -0.0002394490        0.0002611617        0.0000847541
  O         9.1077575633        6.6078518517        6.0032013795       -0.0000307288       -0.0001026926        0.0001724607
  H         8.8703771512        9.0949844710        5.7570866795       -0.0000968497       -0.0013592393       -0.0002116899
  H         5.1542537065        6.1458388186        7.7306423565        0.0009328371       -0.0010577848       -0.0010131240
  H         5.4731040311        7.5169019247        6.5731697279       -0.0011704321        0.0010848744        0.0009692102
  H         5.9998983065        5.8727239400        6.0691238038        0.0004321924        0.0006575931       -0.0001343239
  H         7.7662188618        5.7716641388        7.7775066880        0.0020490117       -0.0004881320       -0.0007620047
  O         7.1357570259        7.5353621811        8.7999831007        0.0002440081        0.0001553052        0.0000502467
  H         6.7372100120        8.3878345068        8.5367570783       -0.0006205545       -0.0013944093        0.0010845260
      12
i =     2997, time =     1498.500, E =       -68.5324280370
  C         7.1892606329        6.9329382496        7.6714825360       -0.0001468877       -0.0000664123       -0.0001700176
  C         5.7262697082        7.2357035825        7.3904546290       -0.0000627503        0.0001281610        0.0002556137
  C         7.9999631407        7.1582854198        6.3077474947        0.0002125268       -0.0002483022        0.0001098479
  O         9.3082664605        7.5763887243        6.6892952727        0.0001180806        0.0000085746        0.0002789418
  O         7.5440891163        7.0275751814        5.1909699826       -0.0001706386        0.0001056949       -0.0000962061
  H         9.6889610264        7.8458576845        5.8306704560       -0.0004639538        0.0004366855        0.0000694175
  H         5.2044465167        7.4979817928        8.3041879083       -0.0002837816        0.0002496259       -0.0009686990
  H         5.6830883043        8.1167671941        6.7713304180       -0.0014562138       -0.0008778334       -0.0011615456
  H         5.1186190813        6.4527263435        6.8893153938       -0.0000766909        0.0004668443        0.0002159635
  H         7.4005562650        5.8256873011        8.0110585157        0.0003518454       -0.0013034731       -0.0018019796
  O         7.7288944604        7.7257270957        8.7574497845        0.0001844584        0.0001597547       -0.0000263508
  H         8.2414728380        8.4407880379        8.3799584640       -0.0001993332       -0.0010985487       -0.0011644405
      12
i =     3997, time =     1998.500, E =       -68.5267496100
  C         7.1450698976        7.1319511675        7.7149840191        0.0000894791       -0.0000129390       -0.0002624199
  C         6.5007428489        8.5634042453        7.9128500633        0.0001673684        0.0000045546        0.0002421087
  C         7.7046769478        7.0048305157        6.2750826344       -0.0001318846        0.0001464705        0.0001973507
  O         9.0928882651        7.0402110314        6.1142054424       -0.0000777751       -0.0000421424        0.0000684400
  O         6.9575893283        7.1846608093        5.2853453800        0.0001655523       -0.0001256930       -0.0000020239
  H         9.0925842743        6.8402622992        5.1374738281       -0.0009043342        0.0004966349       -0.0001793560
  H         5.6048760549        8.4083566060        8.5613945815       -0.0000653169        0.0004201443        0.0007106383
  H         7.2410962234        9.2744351444        8.4098507930        0.0007791740       -0.0002521723        0.0000117559
  H         6.1095665414        8.8852803826        6.9738514485        0.0004834223       -0.0012484816       -0.0004691444
  H         6.1938392582        6.4671961010        7.7293576318       -0.0009682660       -0.0000204061       -0.0003224054
  O         8.1256643687        6.9656067576        8.7481126001       -0.0001460651        0.0001546385       -0.0001720405
  H         8.3257208421        6.0072429920        8.8643968406        0.0001114770       -0.0008316829       -0.0001844914
      12
i =     4997, time =     2498.500, E =       -68.5378497975
  C         7.2930295459        7.4999096016        7.7173265633        0.0001322285       -0.0002256046        0.0003886308
  C         7.8917895141        8.8825842613        8.2239603979       -0.0001183858       -0.0000158928       -0.0002056694
  C         7.3668142690        7.1346330743        6.2412148252        0.0000338975       -0.0001096969        0.0000137786
  O         8.5061942975        6.4140408713        5.8937893823       -0.0000911058        0.0001079422       -0.0002335130
  O         6.5944681595        7.5598444717        5.4249328852        0.0001765814        0.0001264995       -0.0000738730
  H         8.5441754528        6.3550703329        4.9063925461       -0.0007633372       -0.0012152969        0.0001489877
  H         7.4283354602        9.0387180236        9.2259373863        0.0003725681        0.0008523905       -0.0010087383
  H         8.9667165784        8.7849715786        8.3292101537       -0.0006881202       -0.0000921363        0.0008424443
  H         7.7099097202        9.7859321659        7.5575207300        0.0005132489        0.0007076911       -0.0001583493
  H         6.2562304807        7.5498526847        8.0237000809       -0.0011023143        0.0008996269        0.0006606051
  O         7.8549809421        6.4798790273        8.5709127425       -0.0000256525       -0.0001030812        0.0001635406
  H         8.8004655343        6.2903968221        8.2700396440        0.0001494844        0.0009474541       -0.0005460096
      12
i =     5997, time =     2998.500, E =       -68.5336693770
  C         7.5340025581        7.5984070742        7.7478790011       -0.0001550202        0.0001706407        0.0001207577
  C         8.9831678580        8.2914625015        7.8239723391        0.0001896139       -0.0000100295        0.0000390705
  C         7.2456905940        7.3137673021        6.3181473252       -0.0000980670       -0.0001567022        0.0001527827
  O         8.0616866249        6.3112432750        5.8589148784        0.0000572233       -0.0001387149       -0.0000089142
  O         6.4916534823        7.9530442258        5.5877375362        0.0000469103        0.0000748185       -0.0000452103
  H         7.9847973279        6.2876302854        4.8832289058       -0.0009177802        0.0008789930       -0.0002284710
  H         8.9624305652        9.0876088514        8.5594836233       -0.0004365886        0.0005238987       -0.0002799208
  H         9.7453575030        7.6535451576        8.1267219302       -0.0008989264       -0.0010839518        0.0003970467
  H         9.3387025780        8.6545343848        6.8094150052        0.0001220659       -0.0007650865        0.0001806336
  H         6.8438996460        8.3677689915        8.0544200638       -0.0013428264        0.0002052920        0.0000241975
  O         7.2928268671        6.5465966649        8.7395969003        0.0001941648        0.0000392125       -0.0001698364
  H         7.9017399824        5.7936083657        8.5752061714       -0.0005045897        0.0005860909       -0.0002635698
      12
i =     6994, time =     3497.000, E =       -68.5333563252
  C         7.9127966415        7.6154319065        7.6962403201        0.0002140056        0.0000452527        0.0001571909
  C         9.4906279961        7.5267106491        7.6035928746       -0.0000169768       -0.0001211163       -0.0003001895
  C         7.2511053176        7.5511947523        6.3741479289        0.0000813420       -0.0002366635       -0.0002501116
  O         6.8772562334        6.1945007055        6.1522348775        0.0000914007        0.0001744801        0.0000818286
  O         7.0527397430        8.4699981610        5.6163618717       -0.0001295701        0.0000173308        0.0001208780
  H         6.7733908950        6.1433711508        5.1659934824        0.0008956511        0.0007349942       -0.0002751224
  H         9.8329171587        7.2261022784        8.6144559949       -0.0005520829       -0.0000840546       -0.0001748542
  H         9.8254279258        6.7938819742        6.9040280495        0.0004762965        0.0002858932        0.0015375585
  H         9.7534169354        8.5913449402        7.2727848625       -0.0002526088       -0.0004129063       -0.0007621763
  H         7.6939827485        8.6023409716        8.1568108328        0.0000155122       -0.0003327480       -0.0005257942
  O         7.2334201007        6.6981839333        8.6165968987       -0.0001688187       -0.0000016781        0.0000989579
  H         7.1653754652        5.8271569144        8.2363033286       -0.0006142604        0.0005148739        0.0000962937
      12
i =     7994, time =     3997.000, E =       -68.5392016681
  C         8.0923575656        7.4614496641        7.7542828022       -0.0001598206        0.0001610261       -0.0003255561
  C         9.3667512729        6.7265838773        7.3038324764       -0.0003896232       -0.0000252480        0.0001585536
  C         7.2474069811        7.6937039687        6.3891730018        0.0002100145       -0.0000411888       -0.0001179662
  O         6.0589012425        6.9948489985        6.3603545242        0.0000201912        0.0001537277       -0.0000151961
  O         7.7000306512        8.3595287631        5.4592278469        0.0000864543       -0.0000676295        0.0001041570
  H         5.5299786593        7.0349898595        5.5392201336        0.0003674145        0.0000990260        0.0002097402
  H        10.0819093019        6.7461095497        8.1298784526        0.0010923919        0.0005922706       -0.0016645672
  H         9.1229905436        5.7258162395        6.9825833757       -0.0004181579        0.0003891638        0.0002315509
  H         9.8978932994        7.2462120399        6.4679602537       -0.0008974020       -0.0002697379        0.0004127906
  H         8.3441459501        8.4961670361        8.1579272572       -0.0013029769       -0.0007477871       -0.0010642445
  O         7.4357767144        6.7423616102        8.7812262329        0.0002086251       -0.0001063850        0.0002706766
  H         6.9723313942        6.0056561280        8.3506097416        0.0001989944       -0.0008680491       -0.0004382170
      12
i =     8994, time =     4497.000, E =       -68.5294128752
  C         8.3291562291        7.0249433541        7.4543959198        0.0000060767        0.0001110281       -0.0000208582
  C         8.6391797180        5.5952674852        7.1822021210       -0.0000751179       -0.0001098510       -0.0000163707
  C         7.4043923589        7.7736525660        6.3999299655       -0.0005218597        0.0001447051        0.0000309048
  O         5.9531473175        7.7169361958        6.6801184801       -0.0000942384       -0.0000705211        0.0000035477
  O         7.8176906008        8.3975908557        5.4586361935        0.0002065579       -0.0001074261       -0.0000847705
  H         5.6040680678        8.4297189410        6.1039639657        0.0006244289        0.0010388306        0.0001943153
  H         9.0759188183        5.0520179157        8.0098051791       -0.0002344322        0.0000692735        0.0008923593
  H         7.7571460563        5.0296049371        6.9981297617       -0.0000400085       -0.0009440505       -0.0010846943
  H         9.1227223712        5.4991906725        6.2080849831        0.0000166003        0.0002802033        0.0005374830
  H         9.1786336996        7.6661118149        7.4389036659        0.0009142217        0.0009562451        0.0016505612
  O         7.8117697862        7.2831615047        8.7693979340        0.0002684531       -0.0000654818       -0.0000388213
  H         7.0104242403        6.6882086771        8.9447324712       -0.0002837261        0.0007251909       -0.0002091631
