     393
 i =        0, time =        0.000, E =     -2253.9617884986
  C         6.6073100000        7.7132000000        6.8917300000
  C         5.9691500000        6.4139800000        7.3938900000
  C         8.1390500000        7.6146200000        6.9470200000
  O         8.6337400000        7.5283200000        8.1827500000
  O         8.8113200000        7.5969100000        5.9136300000
  H         4.8501700000        6.5450400000        7.3483200000
  H         6.3080200000        5.5779500000        6.7951700000
  H         6.1829500000        6.1904900000        8.4048900000
  H         6.3324800000        8.5524200000        7.5174900000
  O         6.1801300000        8.0283100000        5.5758600000
  H         7.0130100000        7.9241200000        5.0226200000
  C        13.4644000000        7.1085700000        7.1336500000
  C        13.8814000000        5.7589700000        6.5229600000
  C        11.9420000000        7.2799900000        7.0786400000
  O        11.4400000000        7.3781400000        5.8545400000
  O        11.2574000000        7.2845300000        8.1301300000
  H        13.3652000000        4.9187800000        7.0576000000
  H        13.5124000000        5.6714700000        5.4751100000
  H        14.9287000000        5.6784100000        6.6008100000
  H        13.9199000000        7.9665700000        6.5659700000
  O        13.9361000000        7.2085900000        8.4854900000
  H        13.0847000000        7.1998200000        9.0377900000
  H         9.6003800000        7.4486300000        8.1517900000
  H        10.4180000000        7.4680400000        5.8682600000
  O        15.9423000000        7.0396100000       13.1108000000
  H        16.2600000000        7.3341400000       13.9644000000
  H        15.7242000000        7.8150500000       12.5937000000
  O        15.8306000000       13.0976000000       12.0265000000
  H        14.9583000000       12.9718000000       11.6531000000
  H        15.9919000000        0.0286060000       11.8735000000
  O         5.2312600000       10.0546000000        2.6078800000
  H         6.1418000000        9.9026200000        2.3548100000
  H         4.8862000000        9.1633000000        2.6595900000
  O         1.6406000000       11.3410000000       12.0943000000
  H         1.7364500000       11.2531000000       11.1460000000
  H         2.5145300000       11.1325000000       12.4245000000
  O        12.8220000000        7.8095300000       11.7261000000
  H        13.1858000000        6.9544600000       11.4964000000
  H        11.9311000000        7.4626900000       11.7732000000
  O         6.9790100000        9.8111400000       13.7563000000
  H         7.6514900000        9.4426500000        0.3292320000
  H         6.3609700000        9.0809900000       13.7227000000
  O        19.5615000000        3.2631300000        4.6898000000
  H        18.6404000000        3.5233300000        4.6992800000
  H        19.9971000000        4.1025100000        4.8377200000
  O         2.3451200000        7.5291900000        6.1343900000
  H         2.7976100000        6.6972400000        6.2735000000
  H         3.0049300000        8.1984600000        5.9528800000
  O        19.4045000000        8.8778100000        0.7138750000
  H        19.4574000000        9.8297500000        0.7990200000
  H        19.7993000000        8.7992300000       13.8454000000
  O         2.1544000000       11.1497000000        9.1623400000
  H         2.9665800000       11.4669000000        8.7673700000
  H         1.8032400000       10.6145000000        8.4507000000
  O        10.5576000000       10.2981000000        2.5743800000
  H        10.4524000000       11.1584000000        2.9806000000
  H        11.5074000000       10.2175000000        2.6620000000
  O        19.2118000000        8.9221500000        3.4624400000
  H        19.6974000000        8.8373400000        2.6419600000
  H        19.9627000000        8.9602500000        4.0548100000
  O         4.5980200000       11.2921000000       13.0501000000
  H         5.5130900000       11.1163000000       13.2692000000
  H         4.6162100000       12.2485000000       13.0156000000
  O         3.7201700000        5.4581600000       10.2481000000
  H         4.1964700000        4.6720700000       10.5154000000
  H         3.0349800000        5.5458800000       10.9107000000
  O        13.5098000000        7.3201700000        3.4889200000
  H        13.8495000000        8.1000400000        3.9278500000
  H        13.4493000000        7.6597100000        2.5960200000
  O         3.0344800000        7.9461400000       13.2304000000
  H         2.6879100000        8.3827300000        0.0085437200
  H         2.2761800000        7.8155000000       12.6611000000
  O        19.2247000000        6.1550000000        7.5337900000
  H        19.6181000000        5.2890200000        7.6414300000
  H        19.1449000000        6.1573800000        6.5799300000
  O        11.0957000000       13.8336000000        7.9826000000
  H        11.5955000000       13.8432000000        8.7989400000
  H        10.2180000000        0.1227750000        8.2319200000
  O        14.1339000000        4.6257000000        3.3460500000
  H        14.0284000000        5.5753500000        3.2889300000
  H        14.7837000000        4.5200300000        2.6511300000
  O        10.1179000000        3.9313100000        9.3515800000
  H        11.0536000000        3.7588600000        9.4566900000
  H         9.8082400000        4.0693700000       10.2467000000
  O        10.1083000000        1.3082200000       10.1777000000
  H         9.3273700000        1.1473000000        9.6480800000
  H        10.3143000000        2.1918000000        9.8725900000
  O        16.5923000000        7.1267200000        9.0494400000
  H        15.6558000000        7.0571800000        8.8640300000
  H        17.0211000000        6.5095000000        8.4566400000
  O        16.6611000000        7.7370000000        1.6102000000
  H        17.5174000000        8.1484500000        1.4934300000
  H        16.1640000000        8.5059700000        1.3312000000
  O         7.5203700000       12.3083000000        5.7615200000
  H         7.3314100000       11.8065000000        6.5544300000
  H         7.0058800000       11.7730000000        5.1574400000
  O        15.2733000000       12.6862000000        6.3131300000
  H        14.7810000000       12.5852000000        5.4984400000
  H        15.2162000000       11.7831000000        6.6252000000
  O         7.2403000000        4.3342400000       13.6704000000
  H         6.4857700000        4.6517200000        0.1665140000
  H         7.3205100000        3.4492500000        0.0262213000
  O         7.8399600000        8.9576400000       11.0793000000
  H         7.0810800000        8.3755600000       11.0403000000
  H         7.7645200000        9.3243400000       11.9603000000
  O        11.0586000000        3.4429600000        5.6574900000
  H        11.0838000000        4.0738200000        4.9380400000
  H        10.1184000000        3.3358400000        5.8016300000
  O        11.2010000000        9.8752000000       13.1749000000
  H        10.3489000000        9.7052300000       13.5764000000
  H        11.2307000000        9.2978600000       12.4119000000
  O         4.5875500000        0.5913520000       11.4606000000
  H         3.8077800000        0.4759850000       12.0036000000
  H         5.3851000000        0.4297870000       11.9646000000
  O        16.8296000000        9.7896400000        9.1950700000
  H        16.7131000000       10.0885000000        8.2932300000
  H        16.7739000000        8.8346800000        9.1604700000
  O         0.6265520000        9.1396200000        7.9040600000
  H         1.3636500000        9.0432100000        7.3010500000
  H         0.1088680000        8.3980100000        7.5906100000
  O        13.4269000000       13.9133000000        4.3465200000
  H        13.4887000000        0.4729410000        5.1205900000
  H        12.7240000000        0.3147010000        3.8356200000
  O         0.3711280000        8.7906900000       12.0766000000
  H         0.6705350000        9.6849300000       11.9125000000
  H         0.0445990000        8.5709200000       11.2041000000
  O         8.0682100000        9.4789100000        2.5366400000
  H         8.0451000000        8.6445200000        3.0051400000
  H         8.9321800000        9.8544100000        2.7063100000
  O        13.1767000000       12.8735000000       10.2431000000
  H        12.9335000000       13.2469000000       11.0903000000
  H        13.3427000000       11.9527000000       10.4451000000
  O        19.4337000000        3.4454600000       10.5449000000
  H        19.2756000000        4.3702100000       10.3550000000
  H        19.7630000000        3.5333600000       11.4394000000
  O        16.8065000000        9.7220400000        6.4226100000
  H        17.5448000000       10.3209000000        6.3104000000
  H        16.8291000000        9.0910500000        5.7031800000
  O        10.8804000000        5.6878300000        3.6470000000
  H        11.6020000000        6.2539600000        3.9209000000
  H        11.2692000000        5.3015000000        2.8622800000
  O         6.5146200000        1.1109000000        5.4524400000
  H         5.6645200000        0.8729000000        5.8224700000
  H         7.0705200000        0.4145610000        5.8021900000
  O        17.8130000000        0.8011970000        0.4620950000
  H        17.7759000000        0.0333252000       13.8918000000
  H        17.5931000000        0.4292220000        1.3162000000
  O         3.0892600000        5.0490800000        2.3749200000
  H         2.7811700000        4.1428200000        2.3771800000
  H         3.3193400000        5.2492900000        3.2822300000
  O        16.6274000000        3.6279500000        1.9854300000
  H        17.5310000000        3.3266500000        2.0793300000
  H        16.6195000000        3.7682900000        1.0386100000
  O        19.8051000000        1.5771100000        6.8987300000
  H        18.9747000000        1.1298900000        6.7356600000
  H        19.9797000000        2.1010000000        6.1168900000
  O        14.5650000000        2.8504000000        8.8264500000
  H        14.0715000000        2.2379300000        8.2809400000
  H        15.3392000000        2.9982800000        8.2833400000
  O        13.4706000000       10.1807000000       10.2491000000
  H        14.0429000000       10.2893000000        9.4895800000
  H        13.3569000000        9.2382400000       10.3718000000
  O        19.8161000000        2.7508400000        1.8494300000
  H        19.7487000000        1.9083400000        1.4001100000
  H         0.5274750000        2.7039100000        2.4881300000
  O         2.5129600000        0.5460040000        4.9228100000
  H         2.4909700000        1.3764900000        5.3982500000
  H         3.3034500000        0.1374250000        5.2755500000
  O        11.8354000000        6.2244600000        0.5598150000
  H        12.4165000000        6.9818100000        0.6303590000
  H        12.2901000000        5.3842600000        0.6187930000
  O         6.9963500000       13.3992000000       12.7551000000
  H         7.7425400000       12.8225000000       12.9191000000
  H         7.0577200000        0.0784791000       13.4268000000
  O        15.6687000000        9.6919400000       11.9341000000
  H        16.2319000000        9.7286800000       11.1611000000
  H        14.8473000000        9.8148600000       11.4582000000
  O         8.3869500000        3.5089400000        6.5342500000
  H         7.7054200000        2.9350100000        6.8840400000
  H         8.6727900000        3.9642100000        7.3262500000
  O         0.5663750000        3.1204800000       13.0880000000
  H         0.5854550000        2.1677600000       12.9975000000
  H         0.4886960000        3.1776300000        0.0403739000
  O         7.5703900000        1.6669900000        0.4611790000
  H         8.5068800000        1.5756000000        0.6368820000
  H         7.1004600000        1.2446500000        1.1802200000
  O         5.1245200000        1.2342700000        2.4096400000
  H         4.7768600000        0.4127210000        2.0626100000
  H         4.3606500000        1.5963900000        2.8586300000
  O        12.0152000000       10.9020000000        6.3095100000
  H        11.1037000000       10.8242000000        6.0278200000
  H        12.1708000000       11.8464000000        6.2985000000
  O         3.6623300000        1.9893200000        7.5168700000
  H         3.4892200000        2.9293700000        7.4661700000
  H         3.1061100000        1.6244000000        8.2051200000
  O         1.9076700000        0.2203460000       12.0026000000
  H         1.5413600000       13.3375000000       11.9514000000
  H         1.7911700000        0.5829210000       11.1244000000
  O        16.8231000000        4.3743700000        5.0969600000
  H        16.9712000000        5.3089500000        4.9526500000
  H        16.0883000000        4.1797800000        4.5151600000
  O         8.0909600000        0.5591520000        8.3534200000
  H         7.3275900000        1.1115700000        8.1851000000
  H         7.7768300000       13.6963000000        8.6235900000
  O        10.0731000000       12.9913000000        1.4244500000
  H         9.1181600000       12.9466000000        1.4724000000
  H        10.3453000000       12.1063000000        1.1815100000
  O         0.5260360000        3.8479300000        8.0941300000
  H         0.3264350000        2.9915000000        7.7160900000
  H         0.2628070000        3.7722400000        9.0113000000
  O         1.5162000000        0.4944060000        0.8109150000
  H         1.5531900000       13.6473000000        1.2551500000
  H         1.8161900000        0.2158690000       13.9457000000
  O         4.8440700000       13.2325000000        8.8707600000
  H         4.8816500000       13.6842000000        9.7138400000
  H         4.9616600000       12.3257000000        9.1537400000
  O        15.5924000000       10.2878000000        0.6752700000
  H        16.1687000000       10.9677000000        1.0243800000
  H        15.7581000000       10.3303000000       13.7335000000
  O        12.4193000000        2.9627000000        2.0168700000
  H        12.8567000000        3.4762400000        2.6959600000
  H        13.0508000000        3.0461900000        1.3024200000
  O        18.5714000000       12.1900000000        8.8573200000
  H        18.7954000000       12.7187000000        9.6231900000
  H        18.0254000000       11.4831000000        9.2014900000
  O         5.2184200000       10.6432000000        9.8682100000
  H         5.3371900000       10.8792000000       10.7882000000
  H         4.9688300000        9.7217900000        9.7976800000
  O         2.5016600000        2.2226300000        2.6842400000
  H         2.1813700000        1.7279100000        1.9299800000
  H         2.6015800000        1.5627800000        3.3704200000
  O        16.5800000000        4.3087600000       10.4607000000
  H        15.9970000000        5.0145900000       10.1813000000
  H        16.6934000000        3.7887500000        9.6651400000
  O        13.2769000000        8.3207500000        0.9382530000
  H        14.0095000000        8.4145000000        0.3293580000
  H        12.6332000000        9.0078200000        0.7657730000
  O         9.9913100000       12.3323000000        4.6063500000
  H        10.3301000000       13.1336000000        4.2069600000
  H         9.1415900000       12.4963000000        5.0153800000
  O        16.3484000000       12.4804000000        1.8934700000
  H        16.9935000000       12.4538000000        2.6001900000
  H        15.6828000000       13.0421000000        2.2905400000
  O        11.1823000000        0.8466870000        3.0349800000
  H        10.8926000000        0.1861040000        2.4057600000
  H        11.5438000000        1.5088900000        2.4458600000
  O         6.1699800000        2.7505100000        8.2697900000
  H         6.0182400000        2.9909600000        9.1837900000
  H         5.3892400000        2.3424400000        7.8954200000
  O         1.2598600000        0.5000820000        8.9178900000
  H         0.6999530000        0.7474940000        8.1820100000
  H         1.5022300000       13.5813000000        8.8024100000
  O        12.7419000000        1.9039000000        7.0305300000
  H        12.0798000000        1.2333700000        7.1986100000
  H        12.2781000000        2.6189500000        6.5948100000
  O        14.0013000000       10.1112000000        4.5046300000
  H        14.7761000000       10.4840000000        4.9252100000
  H        13.3762000000       10.1796000000        5.2263200000
  O        13.1602000000       11.6762000000        1.8628100000
  H        14.0409000000       11.3685000000        1.6485700000
  H        13.2335000000       11.7603000000        2.8134900000
  O         1.2101700000       12.0355000000        5.3042300000
  H         1.4587600000       12.9584000000        5.3551400000
  H         1.3248300000       11.8729000000        4.3679300000
  O        18.4202000000       12.3873000000       12.3521000000
  H        18.5241000000       13.1801000000       11.8259000000
  H        17.4640000000       12.3449000000       12.3460000000
  O         1.7430700000       11.2341000000        2.6145500000
  H         2.0032100000       10.3528000000        2.3467200000
  H         0.9520160000       11.3884000000        2.0981500000
  O        19.1067000000        7.0666400000       10.1468000000
  H        19.2745000000        6.7344800000        9.2648900000
  H        18.1851000000        7.3149800000       10.0753000000
  O        18.3355000000       11.6027000000        3.5659500000
  H        18.4463000000       11.9221000000        4.4614600000
  H        18.2080000000       10.6549000000        3.6060900000
  O         9.0793000000        4.6566300000       11.7536000000
  H         9.6038600000        5.4375300000       11.9304000000
  H         8.6038700000        4.5949600000       12.5821000000
  O        12.8512000000       12.9785000000       13.0536000000
  H        11.9655000000       12.9752000000       12.6908000000
  H        12.7764000000       12.4832000000       13.8692000000
  O         7.4695200000       11.6133000000        8.5221600000
  H         6.7949000000       11.2340000000        9.0854400000
  H         8.2856600000       11.3855000000        8.9674000000
  O        19.9000000000       11.5863000000        0.5594300000
  H        19.1994000000       11.7624000000       13.9314000000
  H         0.4864370000       11.0529000000        0.0229872000
  O        18.9942000000        5.9650100000       13.4701000000
  H        18.5415000000        5.1576500000       13.2263000000
  H        18.7469000000        6.5725400000       12.7729000000
  O        15.1219000000        1.0428700000        2.2803600000
  H        15.5455000000        1.9012400000        2.2883600000
  H        14.6512000000        0.9631990000        3.1099700000
  O         7.2578400000       13.0499000000        2.2468600000
  H         6.4006800000       12.6493000000        2.3920300000
  H         7.2011100000       13.9418000000        2.5896300000
  O         6.8282600000        4.2194000000        4.2296700000
  H         7.3360100000        3.9613900000        4.9989800000
  H         6.7546700000        3.3578700000        3.8190700000
  O        10.6313000000       11.3736000000        9.5951000000
  H        10.7742000000       11.4330000000        8.6504900000
  H        11.4720000000       10.9768000000        9.8232600000
  O        16.8794000000        7.2719700000        4.4920100000
  H        16.3104000000        7.1954300000        3.7260900000
  H        17.5996000000        7.6909900000        4.0207800000
  O        18.8621000000       11.6872000000        6.2588700000
  H        18.9378000000       11.9164000000        7.1851400000
  H        19.7138000000       11.7955000000        5.8358000000
  O        17.0445000000        0.6102140000        7.2296800000
  H        17.5409000000       13.8309000000        7.4796700000
  H        16.2657000000        0.1955440000        6.8585000000
  O         8.1652600000        1.5373400000        3.3193500000
  H         9.1012700000        1.4597800000        3.5039800000
  H         7.7521200000        1.4570200000        4.1790600000
  O        18.7091000000        0.4846760000       10.5249000000
  H        18.2356000000        1.3002600000       10.3611000000
  H        19.6116000000        0.6930650000       10.2834000000
  O         2.1969800000        8.6052100000        1.8729800000
  H         2.8570900000        8.2217000000        2.4504000000
  H         1.5307300000        7.9197100000        1.8237200000
  O        13.9175000000        1.4379700000       13.7502000000
  H        14.5237000000        1.1971500000        0.4507740000
  H        13.4272000000        0.6276890000       13.6113000000
  O        15.7561000000        1.9716100000       11.8131000000
  H        15.5223000000        2.7745000000       11.3473000000
  H        14.9784000000        1.6963400000       12.2986000000
  O        10.2006000000        7.2254600000       12.0469000000
  H        10.0511000000        7.1117400000       12.9854000000
  H         9.4106400000        7.7013700000       11.7906000000
  O         1.2963000000        5.7104600000       11.4884000000
  H         0.8283390000        5.1951500000       12.1454000000
  H         0.5854550000        6.3026000000       11.2428000000
  O         5.5428100000        3.3079700000       10.7974000000
  H         6.2819200000        3.5765300000       11.3432000000
  H         5.3327700000        2.4462200000       11.1573000000
  O        17.1995000000        3.8595200000       13.2233000000
  H        17.3444000000        2.9134600000       13.2091000000
  H        17.0939000000        3.9738900000       12.2788000000
  O         5.4322200000       10.5596000000        5.0709600000
  H         5.6918700000        9.7108100000        5.4292500000
  H         5.4040700000       10.3578000000        4.1356900000
  O         4.4545100000       13.1566000000        6.1876300000
  H         4.8475300000       12.2885000000        6.0970300000
  H         4.4765600000       13.2941000000        7.1346500000
  O         4.7632800000        8.0320400000       10.6698000000
  H         4.5298300000        7.1377200000       10.4210000000
  H         4.3096500000        8.1249400000       11.5076000000
  O         4.2420100000       12.6502000000        1.9854800000
  H         4.5060100000       11.7438000000        1.8276700000
  H         3.3863800000       12.5167000000        2.3932500000
  O         4.5986300000        5.7393200000        0.3111190000
  H         3.8791300000        5.3887200000        0.8361260000
  H         4.1287600000        6.1917000000       13.6105000000
  O        13.2436000000        4.9188300000       10.6343000000
  H        13.7466000000        4.3795200000       10.0242000000
  H        13.2669000000        4.4045100000       11.4413000000
  O        10.3746000000       13.0745000000       11.8935000000
  H        10.6733000000       12.3753000000       11.3119000000
  H        10.4287000000       13.8164000000       11.2910000000
  O         4.0998500000        4.8906800000        5.0313200000
  H         4.9752300000        4.5244500000        4.9055600000
  H         3.8777700000        4.5561600000        5.9002300000
  O        14.2659000000        4.5201600000       13.7214000000
  H        14.9438000000        5.1895500000       13.6286000000
  H        14.5670000000        3.7199700000       13.2910000000
  O         3.0792500000        4.6504900000        7.5224300000
  H         3.0885900000        5.2009800000        8.3054400000
  H         2.2119300000        4.2830300000        7.6926300000
  O         0.5502310000        6.3979900000        2.2347300000
  H        19.8906000000        6.2655400000        1.5538800000
  H         1.2524600000        5.8088900000        1.9589100000
  O         2.8760700000       10.2003000000        6.1438800000
  H         2.1909100000       10.7692000000        5.7930000000
  H         3.6510100000       10.6699000000        5.8354500000
  O        14.2187000000       10.3439000000        7.5892600000
  H        14.5225000000        9.4415200000        7.6874800000
  H        13.3044000000       10.2482000000        7.3227200000
  O         9.4709600000        7.6874800000        0.6081120000
  H         8.9652200000        7.4394900000        1.3820300000
  H        10.2630000000        7.1499200000        0.6073170000
  O         4.7570800000        7.4822300000        2.7823100000
  H         4.7091700000        7.0792300000        3.6492200000
  H         4.8848400000        6.7460800000        2.1839900000
  O        17.1348000000        3.6494400000        7.6594500000
  H        17.3758000000        2.7307700000        7.5401800000
  H        17.1076000000        4.0141500000        6.7748700000
  O        19.9036000000        6.2764800000        4.8432300000
  H         0.6998890000        6.6879600000        5.1792500000
  H         0.1366040000        6.3236600000        3.9160100000
  O         7.7168200000        6.8765900000        3.5768900000
  H         7.2783200000        6.0366100000        3.7125300000
  H         8.5595400000        6.6745300000        3.9833600000
     392
 i =        1, time =        0.500, E =     -2253.9633890412
  C         6.6111999625        7.7103110328        6.8911403373
  C         8.1381885996        7.6123804374        6.9452257055
  O         8.6379041023        7.5248470265        8.1839625763
  O         8.8149014334        7.5954616391        5.9147446910
  H         4.8578096921        6.5391514104        7.3605881691
  H         6.3094181486        5.5713255915        6.8007260535
  H         6.1711539613        6.1803504527        8.4009975087
  H         6.3225224459        8.5623389671        7.5109207718
  O         6.1804801389        8.0314718595        5.5748201458
  H         7.0109727969        7.9385098062        5.0190510413
  C        13.4670929995        7.1083710132        7.1362335887
  C        13.8809542657        5.7601732369        6.5202661028
  C        11.9406909155        7.2802585525        7.0811853347
  O        11.4403572963        7.3816467690        5.8548030775
  O        11.2618296974        7.2863653157        8.1306296490
  H        13.3675518342        4.9067616001        7.0689166171
  H        13.5084450323        5.6760420042        5.4781926216
  H        14.9354310125        5.6794246921        6.5975179483
  H        13.9158256469        7.9739931628        6.5708557358
  O        13.9375245516        7.2085366187        8.4896788296
  H        13.0795196766        7.2017613178        9.0331783585
  H         9.6178666532        7.4484442588        8.1496334969
  H        10.3948360449        7.4663283465        5.8689540994
  O        15.9403205638        7.0408203683       13.1095019612
  H        16.2729295579        7.3419188424       13.9783766569
  H        15.7290867557        7.8039278336       12.5983168476
  O        15.8311824534       13.0976423748       12.0267196303
  H        14.9471004150       12.9704871821       11.6572558069
  H        15.9815584111        0.0315774348       11.8722021749
  O         5.2311135321       10.0566696608        2.6092492961
  H         6.1399104452        9.9072062240        2.3648507947
  H         4.9047060012        9.1718419284        2.6699249474
  O         1.6412065378       11.3388595779       12.0932804326
  H         1.7519138910       11.2585276264       11.1370671320
  H         2.5061127123       11.1219309494       12.4287421516
  O        12.8187808812        7.8110315690       11.7252711793
  H        13.1826708232        6.9688627203       11.5017819412
  H        11.9290445557        7.4611908206       11.7734064230
  O         6.9757473167        9.8109493198       13.7561649905
  H         7.6550250131        9.4464086902        0.3172187254
  H         6.3541350361        9.0714578857       13.7191900577
  O        19.5605354464        3.2619761658        4.6898252212
  H        18.6410612444        3.5214311006        4.6986453946
  H        19.9832554833        4.0916396525        4.8381545046
  O         2.3444257395        7.5279719919        6.1328487252
  H         2.8037130115        6.7009314706        6.2582331166
  H         3.0088843799        8.2125707036        5.9548173313
  O        19.4013845979        8.8768941607        0.7135235015
  H        19.4643288061        9.8248259906        0.8039954256
  H        19.8036809715        8.7992825641       13.8427032631
  O         2.1570363134       11.1474294852        9.1645054074
  H         2.9729816013       11.4826122491        8.7767429241
  H         1.8027976533       10.6158953694        8.4524013803
  O        10.5548322416       10.2974519739        2.5711380128
  H        10.4428543181       11.1517650047        2.9787243461
  H        11.5222460089       10.2165892292        2.6563988202
  O        19.2155511465        8.9212547150        3.4656455332
  H        19.6991258076        8.8365225527        2.6498309734
  H        19.9651349752        8.9581519829        4.0541545263
  O         4.5974793465       11.2933860095       13.0534483678
  H         5.5198909769       11.1096833240       13.2705193059
  H         4.6144800552       12.2509858331       13.0121511766
  O         3.7230993752        5.4564921523       10.2498994907
  H         4.1874303404        4.6789646612       10.5035688652
  H         3.0339050182        5.5382249126       10.9237842017
  O        13.5083345460        7.3219901185        3.4918403144