     208
 i =        0, time =        0.000, E =     -1010.1043666500
  C         0.0006109633       -0.0002178835       -0.0000301922
  C        -0.0000565008       -0.0002186324        0.0000994204
  C        -0.0000714310        0.0001452797       -0.0002084985
  C         0.0000104542        0.0003788239        0.0002625857
  C         0.0002470587        0.0000189423       -0.0000864965
  C         0.0001703099        0.0002703554       -0.0001023641
  C        -0.0000463039        0.0000485580        0.0000021470
  C         0.0000103467       -0.0004386462       -0.0001669131
  C         0.0001365974        0.0000017888        0.0000137409
  C        -0.0000727897       -0.0002798416       -0.0003473613
  C         0.0006269959       -0.0002211975        0.0001055570
  C        -0.0000763734       -0.0000447549       -0.0002947860
  C        -0.0000051102        0.0000114767        0.0000142615
  C        -0.0002181121       -0.0001262211       -0.0002385914
  C         0.0000996131       -0.0000303779        0.0002262492
  C         0.0000715905        0.0004263282       -0.0000784340
  C         0.0001194809        0.0002448444        0.0000171858
  C        -0.0004652324       -0.0001297774       -0.0001061104
  C         0.0001867039        0.0001026604        0.0000095710
  C        -0.0001454448       -0.0002277078        0.0002934185
  C        -0.0002598036       -0.0000120004       -0.0006329601
  C         0.0004323911       -0.0001302786        0.0002985800
  C        -0.0001514709        0.0002319152        0.0001185061
  C         0.0000991714        0.0004954783        0.0000625740
  C         0.0002138231        0.0001203649        0.0000616894
  C         0.0001746981        0.0003747606       -0.0001805984
  C        -0.0000907310        0.0002928508        0.0001562727
  C         0.0000660690       -0.0000384457        0.0000366716
  C         0.0001157935       -0.0004382202       -0.0003406428
  C         0.0001147827       -0.0003353010        0.0002513001
  C        -0.0002426007       -0.0003279189       -0.0004573505
  C         0.0006155743        0.0002094728       -0.0002840912
  C         0.0001203535       -0.0003991617        0.0005987715
  C        -0.0000038205       -0.0001038364       -0.0001997513
  C         0.0004958700       -0.0000617484        0.0003334207
  C        -0.0003019991        0.0000502958       -0.0000753942
  C        -0.0002261752       -0.0001656997       -0.0001139558
  C        -0.0002450018       -0.0001581123        0.0000011173
  C        -0.0002962929       -0.0002089950       -0.0002145476
  C         0.0001644957        0.0002683996       -0.0001338723
  C         0.0000494309        0.0003774053        0.0001928444
  C        -0.0003661003       -0.0004943971       -0.0000272228
  C        -0.0000774954       -0.0000033747       -0.0003084421
  C        -0.0000856345        0.0000520372        0.0001447695
  C        -0.0001755271       -0.0000357850        0.0001364059
  C         0.0000014506        0.0002167574       -0.0000252760
  C         0.0000877004        0.0000787904        0.0000439977
  C         0.0000539696        0.0002604975        0.0001707323
  H        -0.0006284001       -0.0012888408        0.0005185011
  H        -0.0004082747       -0.0001621186        0.0001732512
  H         0.0001533522        0.0003658522       -0.0002740671
  H        -0.0000972518        0.0004426354        0.0004064390
  H        -0.0007999308       -0.0002117888        0.0009362240
  H        -0.0014605477       -0.0005542230       -0.0009296283
  H        -0.0004608266        0.0014113808        0.0007864765
  H        -0.0010231904        0.0002180836        0.0001427657
  H         0.0003836157       -0.0000702194       -0.0001683775
  H         0.0007047721        0.0009446047        0.0010357814
  H        -0.0012573392       -0.0003511192        0.0005051683
  H         0.0002722732       -0.0017002920        0.0003813353
  H        -0.0007083256       -0.0003967575       -0.0001401993
  H        -0.0000130372        0.0003977920        0.0016109834
  H         0.0000092645        0.0007547499       -0.0012185681
  H        -0.0000074011       -0.0005830276        0.0002758891
  H         0.0005528286        0.0008925623       -0.0001572368
  H        -0.0000467298        0.0008700483       -0.0008852940
  H         0.0010056268        0.0012765124       -0.0007012111
  H         0.0006218007       -0.0001806425       -0.0001210438
  H        -0.0003528708       -0.0005385434        0.0001500395
  H        -0.0005594091       -0.0008524944        0.0007910057
  H         0.0011962658        0.0010253292        0.0000522625
  H        -0.0007782805        0.0008575411        0.0003710303
  H         0.0003459344        0.0002066403        0.0005411452
  H        -0.0006144649       -0.0003938448       -0.0002409518
  H         0.0007974438       -0.0003877252       -0.0003520954
  H         0.0003394758        0.0002593077       -0.0006033233
  H        -0.0004494293        0.0001734920        0.0008532324
  H        -0.0008049569       -0.0008510638        0.0013718847
  H        -0.0004306980       -0.0000679996        0.0005777069
  H        -0.0008368143        0.0012414556       -0.0010750993
  H         0.0002458987       -0.0003576095       -0.0000143194
  H         0.0008127511        0.0005418057       -0.0009445539
  H         0.0002123606       -0.0009669572        0.0014718973
  H        -0.0005196712       -0.0004643908        0.0000804054
  H        -0.0009813980       -0.0001366084       -0.0005641379
  H        -0.0010759343        0.0012124498       -0.0006026245
  H        -0.0003766319       -0.0008422795        0.0003408004
  H         0.0008580501       -0.0002545753       -0.0005271860
  H        -0.0001588136       -0.0009361174       -0.0005589533
  H         0.0008220878       -0.0004314481       -0.0000697552
  H        -0.0010440577       -0.0001482323        0.0006952194
  H         0.0005914518       -0.0001930998       -0.0009370891
  H        -0.0002216872        0.0003047196       -0.0012112566
  H        -0.0002981760       -0.0000057797       -0.0001647689
  H        -0.0002895050        0.0004217854       -0.0011873553
  H        -0.0009999993       -0.0018764769        0.0000569984
  H         0.0002299967        0.0000640381       -0.0005617919
  H         0.0004561160       -0.0002452151       -0.0000332454
  H         0.0008970126        0.0001569575        0.0007369137
  H        -0.0007253016       -0.0007844605        0.0001197014
  H         0.0003621298       -0.0000627644        0.0000033761
  H        -0.0007256940        0.0009705116       -0.0002966504
  H        -0.0007390793        0.0003625863       -0.0005001221
  H         0.0004322283       -0.0004423425       -0.0006392005
  H        -0.0005663065       -0.0013604153        0.0000672765
  H         0.0001992792        0.0000834093       -0.0006358265
  H        -0.0012982584        0.0002221916       -0.0004297821
  H        -0.0004214424        0.0001661190       -0.0011864518
  H         0.0005367788       -0.0011432717       -0.0003224521
  H        -0.0009696566       -0.0003819900       -0.0000700674
  H         0.0006829154       -0.0001069182       -0.0008873726
  H         0.0008385832        0.0001632653        0.0000330863
  H        -0.0010271915       -0.0002703448       -0.0007470709
  H         0.0004382580        0.0008282506        0.0006614203
  H        -0.0000353789       -0.0004014523        0.0014044966
  H         0.0003301641       -0.0000950751        0.0000428773
  H         0.0016611905        0.0002516035        0.0006539881
  H         0.0003016866        0.0004129903        0.0010735171
  H        -0.0008915883       -0.0003724557        0.0001832539
  H        -0.0007701595        0.0010968364       -0.0001348876
  H         0.0004024072       -0.0004267358        0.0008629851
  H        -0.0002634225       -0.0010676961       -0.0005752233
  H         0.0001462066       -0.0000188926        0.0006534763
  H        -0.0005573531        0.0001411804        0.0014754899
  H         0.0009915920       -0.0001184819        0.0002265570
  H        -0.0002095843        0.0000068846        0.0006993811
  H        -0.0011579430       -0.0013369422        0.0008657651
  H        -0.0000550555       -0.0002782046       -0.0002513219
  H         0.0010549929       -0.0010824698       -0.0000054328
  H        -0.0011147255        0.0001593888       -0.0005063577
  H        -0.0008721959        0.0005814938        0.0000416645
  H        -0.0007006293        0.0002937214       -0.0007312397
  H         0.0003617272        0.0001836756        0.0005681111
  H        -0.0001473817       -0.0000528830       -0.0000864512
  H        -0.0001116069       -0.0001850290       -0.0002998887
  H        -0.0009897292        0.0002938133       -0.0005722934
  H        -0.0003198932       -0.0014650006        0.0007800902
  H         0.0012489129        0.0004796421        0.0007576556
  H         0.0015876347       -0.0009588418        0.0014308943
  H         0.0004738214       -0.0016476980       -0.0006519064
  H        -0.0004841765       -0.0001467319       -0.0004825221
  H         0.0014021437       -0.0006691563       -0.0006209982
  H        -0.0007867085       -0.0016489621       -0.0003915910
  H         0.0006806558        0.0012136297        0.0012578317
  H        -0.0001147304       -0.0010188217        0.0001912516
  H         0.0006662222        0.0006064622        0.0005822982
  H        -0.0002032104        0.0008140827        0.0002937557
  H         0.0014546215        0.0005072354       -0.0001752138
  H        -0.0005183016       -0.0014836653       -0.0014251960
  H        -0.0005571666        0.0004368236       -0.0006630552
  H        -0.0008913318        0.0000310153       -0.0005785625
  H         0.0004986018       -0.0014988370       -0.0002400639
  H        -0.0000783385        0.0011208847        0.0005983336
  H        -0.0002450353        0.0009726255        0.0004685693
  H        -0.0015819552       -0.0001975615       -0.0001260323
  H        -0.0002514751       -0.0005522216       -0.0007519630
  H        -0.0005850706       -0.0004371086       -0.0006995758
  H        -0.0002438629        0.0008821529       -0.0002694938
  H         0.0001986600        0.0007424378       -0.0000623062
  H         0.0002728571        0.0011871908       -0.0008860502
  N        -0.0000986630       -0.0002060587       -0.0001867291
  N         0.0002648665       -0.0005559543       -0.0003306235
  N        -0.0001081423       -0.0000317457       -0.0001264373
  N        -0.0002582816        0.0002615100        0.0000420027
  N        -0.0000168911       -0.0002365385        0.0003012007
  N        -0.0002468011        0.0003462900       -0.0001732113
  N         0.0002108636        0.0001686913       -0.0001394540
  N        -0.0001929501       -0.0001168721        0.0001305718
  N         0.0000440885        0.0003144815        0.0001191057
  N        -0.0005456207       -0.0000071115        0.0000239321
  N         0.0002092555       -0.0001068757        0.0000030367
  N         0.0000051239        0.0003078988        0.0000819754
  N        -0.0000381295       -0.0001734486       -0.0000227335
  N         0.0001453406       -0.0001712609        0.0000479370
  N         0.0000142104        0.0001562452        0.0002229121
  N         0.0001523971       -0.0000210436       -0.0000240414
  O        -0.0003209491       -0.0000942252        0.0000425663
  O        -0.0000323804        0.0001399089       -0.0001677242
  O        -0.0000341180        0.0000249796       -0.0004612226
  O        -0.0001021205        0.0000892742       -0.0002643455
  O        -0.0001331579        0.0002788763        0.0000766098
  O        -0.0000773829        0.0001547673       -0.0000247601
  O         0.0000921284        0.0003855769        0.0003439130
  O        -0.0001194032        0.0000224484        0.0003564672
  O         0.0001995015        0.0003889581       -0.0000658572
  O        -0.0000891318        0.0002330001        0.0001747156
  O         0.0000745430       -0.0003486016        0.0001167237
  O         0.0002914596        0.0001336438        0.0000318459
  O        -0.0000126179        0.0000102821        0.0000202326
  O         0.0002164788       -0.0002079147        0.0000902202
  O         0.0002298181       -0.0003626982       -0.0002353246
  O         0.0002462276       -0.0000057988        0.0000834681
  O        -0.0000496422        0.0000172857        0.0003061399
  O        -0.0001151672        0.0002477710        0.0003945693
  O        -0.0002814172        0.0000315476       -0.0002023332
  O         0.0001404174        0.0002218762        0.0002895675
  O         0.0000772357        0.0000230077        0.0001185344
  O        -0.0000911971       -0.0002045517        0.0002374434
  O        -0.0001793167       -0.0001035125        0.0000248678
  O        -0.0002337015        0.0003967457       -0.0002285828
  O         0.0000480800       -0.0002423527        0.0001386005
  O        -0.0000640534       -0.0003407718       -0.0001195154
  O         0.0001791334       -0.0000750991       -0.0003652265
  O         0.0002049132       -0.0002148994       -0.0001396427
  O         0.0001534669        0.0000309910       -0.0002634936
  O        -0.0000258426       -0.0001789638        0.0004343679
  O        -0.0002588345        0.0002047642        0.0000950355
  O         0.0000526149        0.0000840117       -0.0000395179
     208
 i =        1, time =        0.500, E =     -1010.1027630752
  C         0.0005944784       -0.0002244374       -0.0000051102
  C        -0.0000797363       -0.0002030162        0.0001008943
  C        -0.0000767002        0.0001286793       -0.0002134342
  C         0.0000016804        0.0003649369        0.0002616318
  C         0.0002692121        0.0000247285       -0.0001195294
  C         0.0001946674        0.0002342864       -0.0001124092
  C        -0.0000228352        0.0000430062        0.0000313429
  C        -0.0000017766       -0.0004591116       -0.0001631317
  C         0.0001289756        0.0000145068        0.0000132665
  C        -0.0000654581       -0.0002889214       -0.0003380745
  C         0.0006317188       -0.0001800001        0.0000943998
  C        -0.0000680765       -0.0000595598       -0.0002851822
  C        -0.0000279471        0.0000125616       -0.0000018932
  C        -0.0002372591       -0.0001647229       -0.0002597509
  C         0.0000927208       -0.0000571920        0.0001868683
  C         0.0000716984        0.0004314070       -0.0001035949
  C         0.0001010745        0.0002200194        0.0000642601
  C        -0.0004933889       -0.0001224938       -0.0000762416
  C         0.0002034613        0.0001015805        0.0000195130
  C        -0.0001832302       -0.0002128162        0.0003063810
  C        -0.0002620667       -0.0000086465       -0.0006579767
  C         0.0004338244       -0.0001211417        0.0002970288
  C        -0.0001434353        0.0002307979        0.0001236928
  C         0.0001109056        0.0005039147        0.0000601969
  C         0.0001890813        0.0001254905        0.0000429616
  C         0.0001484951        0.0003517970       -0.0001522611
  C        -0.0000803530        0.0003208856        0.0001555022
  C         0.0001014685       -0.0000291252        0.0000221374
  C         0.0001264307       -0.0004382532       -0.0002877175
  C         0.0001155927       -0.0003146024        0.0002119980
  C        -0.0002483866       -0.0003390112       -0.0004508550
  C         0.0006033508        0.0001823648       -0.0003057678
  C         0.0001530693       -0.0003677162        0.0006297299
  C        -0.0000141187       -0.0000945873       -0.0001897860
  C         0.0004823496       -0.0000626687        0.0003008185
  C        -0.0002978903        0.0000884266       -0.0000972593
  C        -0.0002214388       -0.0001610327       -0.0001112370
  C        -0.0002544626       -0.0001916521       -0.0000127610
  C        -0.0003050970       -0.0002446363       -0.0001970038
  C         0.0002065467        0.0002446914       -0.0001812288
  C         0.0000934179        0.0003708935        0.0001329865
  C        -0.0003589436       -0.0004908880       -0.0000281273
  C        -0.0000828782       -0.0000123158       -0.0003190697
  C        -0.0000918723        0.0000821520        0.0001638089
  C        -0.0001866678       -0.0000264016        0.0001252779
  C         0.0000237475        0.0002147988       -0.0000245395
  C         0.0000798576        0.0000843520        0.0000219843
  C         0.0000377930        0.0002673674        0.0001819576
  H        -0.0005979034       -0.0011961754        0.0004931280
  H        -0.0002761868       -0.0002361417        0.0001828694
  H         0.0001274706        0.0003309249       -0.0001736237
  H        -0.0000362282        0.0004370572        0.0002714503
  H        -0.0008703175       -0.0002262678        0.0008820743
  H        -0.0014509147       -0.0004908068       -0.0008596927
  H        -0.0005000248        0.0012217575        0.0007262919
  H        -0.0011596697        0.0004040342        0.0002517159
  H         0.0004697328       -0.0000693802       -0.0002492064
  H         0.0006374932        0.0008637654        0.0009814977
  H        -0.0013704066       -0.0002133969        0.0003834880
  H         0.0003082440       -0.0016930215        0.0003470910
  H        -0.0008935453       -0.0002607414       -0.0001819959
  H        -0.0000910216        0.0004524400        0.0015918282
  H         0.0003348409        0.0006005411       -0.0012024856
  H         0.0000391039       -0.0006355503        0.0003522730
  H         0.0003788376        0.0010849412        0.0000584214
  H        -0.0001136088        0.0008323412       -0.0007970159
  H         0.0009643534        0.0012642332       -0.0007977527
  H         0.0006149442       -0.0001705452       -0.0001765483
  H        -0.0004065653       -0.0007030193        0.0001511931
  H        -0.0006357760       -0.0006924869        0.0007807445
  H         0.0013718191        0.0009780423        0.0002569554
  H        -0.0007273049        0.0009458152        0.0004331661
  H         0.0003826273        0.0002315216        0.0006282319
  H        -0.0008479156       -0.0005067021       -0.0003800574
  H         0.0007077549       -0.0004716448       -0.0003789269
  H         0.0003172566        0.0003360691       -0.0005532491
  H        -0.0005402347        0.0002490328        0.0009666097
  H        -0.0008041988       -0.0008016397        0.0014501776
  H        -0.0005677597       -0.0000149796        0.0004893529
  H        -0.0007048722        0.0012905179       -0.0011659852
  H         0.0001191082       -0.0004869891        0.0001443782
  H         0.0008149818        0.0005219515       -0.0010230623
  H         0.0002765676       -0.0007141386        0.0013401707
  H        -0.0005388745       -0.0002773196        0.0000279798
  H        -0.0008258120       -0.0002866964       -0.0005511667
  H        -0.0010586409        0.0014447894       -0.0005443826
  H        -0.0004875339       -0.0008092724        0.0000697752
  H         0.0010216349       -0.0003159569       -0.0005730481
  H        -0.0000583444       -0.0009165117       -0.0005784276
  H         0.0010257006       -0.0003001165       -0.0000965703
  H        -0.0012232629       -0.0004118679        0.0004529777
  H         0.0005565774       -0.0003093609       -0.0008531357
  H        -0.0002182521        0.0002533549       -0.0013137148
  H        -0.0002009767       -0.0000712838       -0.0001239800
  H        -0.0001654162        0.0006076796       -0.0010459918
  H        -0.0010108877       -0.0017549674       -0.0000699899
  H         0.0002828755        0.0002239294       -0.0004390088
  H         0.0006139347       -0.0004425171       -0.0000651175
  H         0.0011443039        0.0001437567        0.0004841638
  H        -0.0004953177       -0.0007856289       -0.0000949640
  H         0.0003956979        0.0000120319        0.0001422712
  H        -0.0008110487        0.0011383453       -0.0003118543
  H        -0.0006605632        0.0003250420       -0.0004789195
  H         0.0003957679       -0.0003749312       -0.0006158830
  H        -0.0006457923       -0.0011119179        0.0000317405
  H         0.0001414070       -0.0000472079       -0.0005700366
  H        -0.0012147449        0.0001884993       -0.0003786327
  H        -0.0005471164        0.0001975244       -0.0010056823
  H         0.0005100438       -0.0011691854       -0.0003248642
  H        -0.0010774107       -0.0003421412        0.0001052543
  H         0.0006497295       -0.0000053047       -0.0008069951
  H         0.0009425441        0.0003019666        0.0000044082
  H        -0.0009275283       -0.0001244537       -0.0006622839
  H         0.0005718394        0.0009729739        0.0007089681
  H         0.0001875835       -0.0003519079        0.0015588894
  H         0.0004272277       -0.0000392982        0.0000714768
  H         0.0016169479        0.0000957071        0.0005863602
  H         0.0003669174        0.0004890466        0.0009972867
  H        -0.0008794877       -0.0005140223        0.0002080883
  H        -0.0007158562        0.0011117563       -0.0001793977
  H         0.0005204208       -0.0005930001        0.0006421465
  H        -0.0002771562       -0.0010905513       -0.0006898478
  H        -0.0001119221       -0.0001635701        0.0006267922
  H        -0.0004635271        0.0004592257        0.0014082533
  H         0.0010480740       -0.0001086824        0.0002407893
  H        -0.0002332207       -0.0001210426        0.0007235132
  H        -0.0012497714       -0.0012256125        0.0006489966
  H         0.0000876746       -0.0002468672        0.0000639512
  H         0.0010223358       -0.0010788099       -0.0000542479
  H        -0.0008967478        0.0002819558       -0.0001030973
  H        -0.0009465561        0.0008772352        0.0001503430
  H        -0.0004759552        0.0001627717       -0.0006089581
  H         0.0002963528        0.0000962765        0.0004088761
  H        -0.0000815778        0.0004052843       -0.0000965051
  H        -0.0001058129       -0.0001716257       -0.0001555640
  H        -0.0008663789        0.0003521854       -0.0003628442
  H        -0.0003788542       -0.0014015338        0.0007737880
  H         0.0012515195        0.0004084892        0.0006865941
  H         0.0014782609       -0.0008667966        0.0015094193
  H         0.0003960166       -0.0016211575       -0.0006310870
  H        -0.0006236465       -0.0000203209       -0.0005583103
  H         0.0014318345       -0.0004284045       -0.0007621101
  H        -0.0010407749       -0.0016270094       -0.0000134659
  H         0.0006732399        0.0011588354        0.0012380024
  H        -0.0004337418       -0.0009394327        0.0002261765
  H         0.0003070011        0.0002127015        0.0006504445
  H        -0.0001784928        0.0006939942        0.0002419119
  H         0.0014784770        0.0004191914       -0.0001803213
  H        -0.0004293242       -0.0013826683       -0.0013619730
  H        -0.0006320123        0.0003275661       -0.0007415128
  H        -0.0011438939        0.0002304845       -0.0004919849
  H         0.0005170970       -0.0015198001       -0.0002549187
  H        -0.0000242644        0.0012081714        0.0005118854
  H        -0.0001128302        0.0007717211        0.0004190364
  H        -0.0018251374       -0.0003172311        0.0003210306
  H        -0.0002382832       -0.0005232394       -0.0008342409
  H        -0.0006793613       -0.0003339781       -0.0005056737
  H        -0.0002597723        0.0008217763       -0.0003819828
  H         0.0001851229        0.0007103237       -0.0002489598
  H         0.0003940819        0.0011053576       -0.0010797385
  N        -0.0001027587       -0.0001916849       -0.0001783680
  N         0.0002560028       -0.0005458673       -0.0003190700
  N        -0.0000841852       -0.0000402052       -0.0001119309
  N        -0.0002262166        0.0002712418        0.0000695532
  N         0.0000022515       -0.0002195600        0.0003316043
  N        -0.0002391632        0.0003337698       -0.0001685471
  N         0.0001838331        0.0001324323       -0.0001478190
  N        -0.0001832908       -0.0001335967        0.0001425874
  N         0.0000051031        0.0003176790        0.0000927248
  N        -0.0005476969       -0.0000204318        0.0000161694
  N         0.0002092155       -0.0000843698        0.0000288567
  N        -0.0000069125        0.0002626424        0.0000444424
  N        -0.0000145792       -0.0001816672       -0.0000138003
  N         0.0001254324       -0.0001833317        0.0000655256
  N         0.0000536848        0.0001203170        0.0001993091
  N         0.0001815596        0.0000205936       -0.0000088922
  O        -0.0003299453       -0.0000928261        0.0000255594
  O        -0.0000438627        0.0001466819       -0.0001935500
  O        -0.0000270921        0.0000306586       -0.0004637025
  O        -0.0000983699        0.0000938262       -0.0002583055
  O        -0.0001233108        0.0002786266        0.0000763971
  O        -0.0000698689        0.0001554305       -0.0000220182
  O         0.0000855323        0.0003909887        0.0003538827
  O        -0.0001044140        0.0000071417        0.0003415376
  O         0.0001985188        0.0003871885       -0.0000883317
  O        -0.0000928770        0.0002297643        0.0001637863
  O         0.0000818656       -0.0003475752        0.0001289658
  O         0.0002699889        0.0001500147        0.0000387728
  O        -0.0000154723        0.0000085413        0.0000256147
  O         0.0002329962       -0.0002151901        0.0000920544
  O         0.0002373093       -0.0003682564       -0.0002278423
  O         0.0002399515       -0.0000033222        0.0000845760
  O        -0.0000493317        0.0000084558        0.0003049101
  O        -0.0001234710        0.0002599614        0.0003896602
  O        -0.0002896985        0.0000165029       -0.0002029541
  O         0.0001196545        0.0002070351        0.0003018395
  O         0.0000500791       -0.0000015421        0.0001130971
  O        -0.0000627463       -0.0002021546        0.0002322382
  O        -0.0001729419       -0.0000960582        0.0000194313
  O        -0.0002477980        0.0004087856       -0.0002077845
  O         0.0000537356       -0.0002500451        0.0001420541
  O        -0.0000803198       -0.0003496266       -0.0001104897
  O         0.0001732606       -0.0000535259       -0.0003776813
  O         0.0001928086       -0.0002098985       -0.0001379784
  O         0.0001686421        0.0000182031       -0.0002565848
  O        -0.0000284976       -0.0001821739        0.0004450595
  O        -0.0002558911        0.0002093099        0.0001098089
  O         0.0000579142        0.0000830959       -0.0000415904
     208
 i =        2, time =        1.000, E =     -1010.1005893094
  C         0.0005751338       -0.0002331964        0.0000198761
  C        -0.0001009233       -0.0001858511        0.0001010424
  C        -0.0000808148        0.0001127902       -0.0002165301
  C        -0.0000079035        0.0003505827        0.0002584853
  C         0.0002939156        0.0000369387       -0.0001466124
  C         0.0002125982        0.0002019800       -0.0001250445
  C        -0.0000038136        0.0000340592        0.0000654666
  C        -0.0000150992       -0.0004816553       -0.0001523703
  C         0.0001207898        0.0000291224        0.0000104250
  C        -0.0000549082       -0.0002946257       -0.0003260704
  C         0.0006325097       -0.0001409034        0.0000832473
  C        -0.0000604092       -0.0000709806       -0.0002750666
  C        -0.0000509345        0.0000143771       -0.0000186280
  C        -0.0002576411       -0.0002043519       -0.0002781748
  C         0.0000868903       -0.0000845845        0.0001490836
  C         0.0000735911        0.0004338974       -0.0001269866
  C         0.0000806945        0.0001891130        0.0001063552
  C        -0.0005220545       -0.0001172570       -0.0000450055
  C         0.0002185275        0.0001012803        0.0000302643
  C        -0.0002160356       -0.0001967560        0.0003116376
  C        -0.0002593513       -0.0000063645       -0.0006748319
  C         0.0004325912       -0.0001091090        0.0002932557
  C        -0.0001351366        0.0002293173        0.0001273089
  C         0.0001211687        0.0005058216        0.0000563418
  C         0.0001629440        0.0001250164        0.0000230500
  C         0.0001205404        0.0003247160       -0.0001239879
  C        -0.0000728260        0.0003461768        0.0001520960
  C         0.0001377906       -0.0000170878        0.0000090147
  C         0.0001350307       -0.0004361642       -0.0002291122
  C         0.0001194442       -0.0002928074        0.0001659628
  C        -0.0002449118       -0.0003526841       -0.0004355493
  C         0.0005805811        0.0001528091       -0.0003193752
  C         0.0001851597       -0.0003351273        0.0006575722
  C        -0.0000246092       -0.0000860388       -0.0001782774
  C         0.0004635916       -0.0000573317        0.0002646674
  C        -0.0002891369        0.0001284322       -0.0001189644
  C        -0.0002148492       -0.0001550134       -0.0001072600
  C        -0.0002622534       -0.0002214819       -0.0000257173
  C        -0.0003112980       -0.0002805147       -0.0001775426
  C         0.0002461461        0.0002218534       -0.0002259516
  C         0.0001307681        0.0003579012        0.0000654655
  C        -0.0003502622       -0.0004924135       -0.0000336531