      12
i =        0, time =        0.000, E =       -68.5326334251
  C        -0.2030496311       -0.5450341812        0.6461528771       -0.0004232035        0.0005827097       -0.0003122725
  C         0.8856140730       -1.6755845947        0.4304449813        0.0002717987       -0.0002851664        0.0000120578
  C         0.2279102402        0.7662334209       -0.0506855924        0.0002190723       -0.0001220138       -0.0001038004
  O        -0.3849775287        0.9780325597       -1.3067184740       -0.0000851256        0.0002120556       -0.0002668085
  O         1.0365653423        1.5343630503        0.3082542716        0.0001048259       -0.0003571931        0.0000898065
  H         0.0765635739        1.8080065866       -1.5496245758        0.0003730105        0.0000373775        0.0013294180
  H         0.5800331585       -2.6019484053        0.8569629271       -0.0001886835       -0.0001446755       -0.0012115144
  H         1.0916396758       -1.8610118228       -0.6338547166        0.0003408381        0.0009197197        0.0014520189
  H         1.8773086232       -1.4416277571        0.8415257233        0.0017175142        0.0002311857        0.0007806492
  H        -0.3151595587       -0.1700703487        1.6613593745        0.0008641747       -0.0001586019        0.0000799454
  O        -1.4569935900       -1.0944852552        0.2041118591       -0.0002345895       -0.0000601644        0.0002927715
  H        -1.3751800848       -0.9097761626       -0.7921827386       -0.0005192676        0.0002784318        0.0005415054
      12
i =     1000, time =      500.000, E =       -68.5260224454
  C        -0.3131350893       -0.5335650740        0.6356086712        0.0002085084       -0.0001969409        0.0003089471
  C        -0.5254365195       -1.8604469961       -0.1531714364       -0.0003989900        0.0000228446       -0.0001760410
  C         0.5875171897        0.4287898494       -0.2765029733       -0.0000497870       -0.0003004367       -0.0004488081
  O        -0.0851474763        1.1059538535       -1.2334178987        0.0001089205        0.0003203713        0.0000413669
  O         1.8183121644        0.5791558755       -0.0527311281        0.0002020696        0.0000209462       -0.0000957084
  H         0.5230339201        1.7026079275       -1.7420609802        0.0001729486        0.0011566222        0.0006461371
  H        -1.2020259861       -2.6024148431        0.3124027721        0.0000393707        0.0002140063        0.0018152573
  H        -0.7505909781       -1.6389862503       -1.1908999620       -0.0002011508       -0.0004446225        0.0009461631
  H         0.4562664217       -2.3904359980       -0.1463621412        0.0001054238        0.0004415757        0.0011266377
  H         0.2756901765       -0.7389042508        1.6111700164       -0.0010638974       -0.0004635405        0.0005830501
  O        -1.3593739254        0.1452005261        1.1605638451       -0.0001188407       -0.0000401501       -0.0000538686
  H        -2.2441048293        0.0327073305        0.6952793571        0.0007736958       -0.0000313238        0.0004076462
      12
i =     2000, time =     1000.000, E =       -68.5327924547
  C        -0.3469392817       -0.5647908198        0.5595796738       -0.0003442392       -0.0001169138        0.0001328007
  C        -1.7907749398       -0.7299837984       -0.0889188254        0.0000242011        0.0003942341       -0.0002028230
  C         0.6395464948        0.0548078134       -0.5578738298        0.0001735528       -0.0004204998       -0.0002995236
  O         0.4761637703        1.4624135532       -0.7414281973       -0.0002016692        0.0002468502        0.0000817355
  O         1.4899765217       -0.6968396958       -1.0070068946       -0.0000863694       -0.0001557766        0.0001280559
  H         1.2525961096        1.7902929235       -1.2531215946       -0.0000598801       -0.0014012680       -0.0002336982
  H        -2.4635273351       -1.1588527289        0.7204340824        0.0009056778       -0.0009641061       -0.0009530926
  H        -2.1446770105        0.2122103772       -0.4370385462       -0.0011742965        0.0011732453        0.0010293714
  H        -1.6178827351       -1.4319676075       -0.9410844703        0.0003489934        0.0007281643       -0.0000990161
  H         0.1484378202       -1.5330274087        0.7672984139        0.0020081870       -0.0004990337       -0.0007753278
  O        -0.4820240157        0.2306706336        1.7897748266        0.0003013732        0.0001630177        0.0000653595
  H        -0.8805710296        1.0831429593        1.5265488042       -0.0005363061       -0.0013690974        0.0011159318
      12
i =     2997, time =     1498.500, E =       -68.5324280370
  C        -0.4281463633       -0.3712205642        0.6620716671       -0.0001423669       -0.0000540358       -0.0001596840
  C        -1.8911372880       -0.0684552313        0.3810437601       -0.0000556164        0.0001876807        0.0003031337
  C         0.3825561445       -0.1458733940       -0.7016633742        0.0001900350       -0.0002595740        0.0001002155
  O         1.6908594643        0.2722299105       -0.3201155962        0.0001185004       -0.0000450680        0.0002371772
  O        -0.0733178799       -0.2765836324       -1.8184408863       -0.0002253113        0.0001107901       -0.0000946178
  H         2.0715540302        0.5416988707       -1.1787404129       -0.0004764701        0.0003722936        0.0000185438
  H        -2.4129604795        0.1938229790        1.2947770394       -0.0002453609        0.0003243087       -0.0009076639
  H        -1.9343186919        0.8126083803       -0.2380804509       -0.0014364926       -0.0008159270       -0.0011115070
  H        -2.4987879149       -0.8514324703       -0.1200954751       -0.0001071115        0.0005465712        0.0002774482
  H        -0.2168507312       -1.4784715127        1.0016476468        0.0003295497       -0.0012983925       -0.0017987496
  O         0.1114874642        0.4215682819        1.7480389156        0.0002415149        0.0001531416       -0.0000282600
  H         0.6240658418        1.1366292241        1.3705475951       -0.0001289263       -0.0011209036       -0.0011780406
      12
i =     3997, time =     1998.500, E =       -68.5267496100
  C        -0.4721531748       -0.1720252463        0.7048449871        0.0001059075       -0.0000035868       -0.0002491325
  C        -1.1164802235        1.2594278315        0.9027110313        0.0002325709        0.0000318061        0.0002847314
  C         0.0874538754       -0.2991458981       -0.7350563976       -0.0001632991        0.0001488025        0.0001926641
  O         1.4756651927       -0.2637653824       -0.8959335896       -0.0001130552       -0.0000801592        0.0000215234
  O        -0.6596337441       -0.1193156045       -1.7247936520        0.0001092269       -0.0000944102        0.0000173533
  H         1.4753612019       -0.4637141146       -1.8726652039       -0.0009754616        0.0004651941       -0.0002276076
  H        -2.0123470175        1.1043801922        1.5512555495        0.0000150984        0.0004697721        0.0007796247
  H        -0.3761268490        1.9704587306        1.3997117610        0.0008808009       -0.0002503577        0.0000365104
  H        -1.5076565310        1.5813039688       -0.0362875835        0.0005295054       -0.0012032424       -0.0004123909
  H        -1.4233838142       -0.8367803128        0.7192185998       -0.0009712371        0.0000172385       -0.0002844876
  O         0.5084412963       -0.3383696562        1.7379735681       -0.0001029959        0.0001277793       -0.0001898696
  H         0.7084977697       -1.2967334218        1.8542578086        0.0001295017       -0.0008652945       -0.0002148840
      12
i =     4997, time =     2498.500, E =       -68.5378497975
  C        -0.3250625304        0.1963497398        0.7086169418        0.0001454386       -0.0002207136        0.0003923070
  C         0.2736974378        1.5790243995        1.2152507764       -0.0000687985       -0.0000255097       -0.0002053910
  C        -0.2512778073       -0.1689267875       -0.7674947963        0.0000210066       -0.0001021890        0.0000155026
  O         0.8881022212       -0.8895189905       -1.1149202392       -0.0001239795        0.0000915976       -0.0002478502
  O        -1.0236239168        0.2562846099       -1.5837767363        0.0001629346        0.0001531873       -0.0000614428
  H         0.9260833765       -0.9484895289       -2.1023170754       -0.0008096279       -0.0012296430        0.0001340151
  H        -0.1897566161        1.7351581618        2.2172277648        0.0004378703        0.0008500118       -0.0010023190
  H         1.3486245021        1.4814117168        1.3205005322       -0.0006393686       -0.0001254961        0.0008292370
  H         0.0918176439        2.4823723041        0.5488111085        0.0005743483        0.0007039485       -0.0001532501
  H        -1.3618615956        0.2462928229        1.0149904594       -0.0010842511        0.0009262509        0.0006771622
  O         0.2368888658       -0.8236808345        1.5622031210       -0.0000241999       -0.0001128887        0.0001573926
  H         1.1823734580       -1.0131630397        1.2613300225        0.0001431084        0.0009178892       -0.0005643161
      12
i =     5997, time =     2998.500, E =       -68.5336693770
  C        -0.0828929330        0.2951507554        0.7400818950       -0.0001410964        0.0001708052        0.0001220255
  C         1.3662723669        0.9882061827        0.8161752330        0.0002200914       -0.0000432313        0.0000289784
  C        -0.3712048971        0.0105109833       -0.6896497809       -0.0001030244       -0.0001475307        0.0001560648
  O         0.4447911338       -0.9920130438       -1.1488822277        0.0000253037       -0.0001474906       -0.0000143609
  O        -1.1252420088        0.6497879070       -1.4200595699        0.0000503051        0.0001025081       -0.0000343429
  H         0.3679018368       -1.0156260334       -2.1245682003       -0.0009586711        0.0008736147       -0.0002332929
  H         1.3455350741        1.7843525326        1.5516865172       -0.0003814955        0.0004899409       -0.0002885006
  H         2.1284620119        0.3502888388        1.1189248241       -0.0008804648       -0.0011351426        0.0003793012
  H         1.7218070869        1.3512780660       -0.1983821009        0.0001521055       -0.0008047442        0.0001680777
  H        -0.7729958451        1.0645126727        1.0466229577       -0.0013086076        0.0002207717        0.0000327160
  O        -0.3240686240       -0.7566596539        1.7317997942        0.0001925319        0.0000432480       -0.0001682462
  H         0.2848444913       -1.5096479531        1.5674090653       -0.0005249138        0.0005764353       -0.0002685013
      12
i =     6994, time =     3497.000, E =       -68.5333563252
  C         0.2952831120        0.3119783156        0.6892742319        0.0002274623        0.0000331142        0.0001573208
  C         1.8731144666        0.2232570582        0.5966267864       -0.0000067171       -0.0001774857       -0.0003121507
  C        -0.3664082119        0.2477411614       -0.6328181593        0.0000832687       -0.0002224998       -0.0002454890
  O        -0.7402572961       -1.1089528854       -0.8547312107        0.0000532123        0.0002005131        0.0000814672
  O        -0.5647737865        1.1665445701       -1.3906042165       -0.0001071438        0.0000414387        0.0001321916
  H        -0.8441226345       -1.1600824401       -1.8409726058        0.0008487706        0.0007695922       -0.0002750124
  H         2.2154036292       -0.0773513125        1.6074899067       -0.0005429281       -0.0001558926       -0.0001910413
  H         2.2079143963       -0.5095716167       -0.1029380387        0.0004606311        0.0002240119        0.0015189641
  H         2.1359034059        1.2878913493        0.2658187743       -0.0002145775       -0.0004748456       -0.0007700019
  H         0.0764692190        1.2988873807        1.1498447446        0.0000603466       -0.0003413033       -0.0005184352
  O        -0.3840934288       -0.6052696576        1.6096308105       -0.0001746238        0.0000002121        0.0000988508
  H        -0.4521380643       -1.4762966765        1.2293372404       -0.0006475665        0.0005208609        0.0000917240
      12
i =     7994, time =     3997.000, E =       -68.5392016681
  C         0.4746099057        0.1574186019        0.7473273869       -0.0001521337        0.0001486022       -0.0003273631
  C         1.7490036130       -0.5774471849        0.2968770611       -0.0004013955       -0.0000664617        0.0001486614
  C        -0.3703406788        0.3896729065       -0.6177824135        0.0002161828       -0.0000308967       -0.0001149684
  O        -1.5588464174       -0.3091820637       -0.6466008911        0.0000098865        0.0001918481       -0.0000076760
  O         0.0822829913        1.0554977009       -1.5477275684        0.0001034467       -0.0000658839        0.0001063040
  H        -2.0877690006       -0.2690412027       -1.4677352817        0.0003538704        0.0001512933        0.0002200385
  H         2.4641616420       -0.5579215125        1.1229230373        0.0010852780        0.0005325485       -0.0016780549
  H         1.5052428837       -1.5782148227       -0.0243720396       -0.0004549440        0.0003543452        0.0002207167
  H         2.2801456395       -0.0578190223       -0.5389951616       -0.0009012870       -0.0003215375        0.0004013294
  H         0.7263982902        1.1921359739        1.1509718419       -0.0012690638       -0.0007669733       -0.0010650763
  O        -0.1819709455       -0.5616694520        1.7742708176        0.0002047371       -0.0001057091        0.0002706418
  H        -0.6454162657       -1.2983749342        1.3436543263        0.0001757051       -0.0008556074       -0.0004375005
      12
i =     8994, time =     4497.000, E =       -68.5294128752
  C         0.7116380976       -0.2794313172        0.4467761793        0.0000028871        0.0000967318       -0.0000250786
  C         1.0216615865       -1.7091071861        0.1745823805       -0.0001194699       -0.0001351810       -0.0000095207
  C        -0.2131257726        0.4692778947       -0.6076897750       -0.0005158945        0.0001446759        0.0000287858
  O        -1.6643708140        0.4125615245       -0.3275012604       -0.0000868913       -0.0000288304        0.0000170309
  O         0.2001724693        1.0932161844       -1.5489835470        0.0002195042       -0.0001279430       -0.0000974046
  H        -2.0134500637        1.1253442697       -0.9036557748        0.0006449228        0.0010841275        0.0002042944
  H         1.4584006868       -2.2523567556        1.0021854386       -0.0002847792        0.0000404984        0.0009001115
  H         0.1396279248       -2.2747697342       -0.0094899788       -0.0001014381       -0.0009475642       -0.0010630550
  H         1.5052042397       -1.8051839988       -0.7995347574       -0.0000404208        0.0002321738        0.0005402831
  H         1.5611155681        0.3617371436        0.4312839254        0.0009280671        0.0009190119        0.0016311345
  O         0.1942516547       -0.0212131666        1.7617781935        0.0002858127       -0.0000527655       -0.0000402610
  H        -0.6070938912       -0.6161659942        1.9371127307       -0.0002805059        0.0007611501       -0.0001963568
