     393
 i =        0, time =        0.000, E =     -2253.9617884986
  C         0.0003817703       -0.0002275095       -0.0000496856
  C         0.0001544360       -0.0001047178       -0.0000966819
  C        -0.0000611264       -0.0001640978       -0.0002128774
  O         0.0004236356       -0.0002994174        0.0001530209
  O         0.0003964343       -0.0001595192        0.0000662813
  H         0.0005386344       -0.0005475199        0.0011212304
  H         0.0000491536       -0.0005363089        0.0007168553
  H        -0.0011406495       -0.0009035149       -0.0005530653
  H        -0.0008598132        0.0007596450       -0.0006909766
  O        -0.0000107951        0.0003874115       -0.0001170724
  H        -0.0002914953        0.0013080619       -0.0004870235
  C         0.0001967574       -0.0000858746        0.0002975219
  C         0.0000325046        0.0000735879       -0.0002602560
  C        -0.0001322261       -0.0000643985        0.0002211275
  O         0.0000026773        0.0003419569        0.0000200020
  O         0.0004149400        0.0001063979        0.0000708124
  H        -0.0000249787       -0.0011422494        0.0009221687
  H        -0.0002146727        0.0003338737        0.0003385741
  H         0.0004939289        0.0000263166       -0.0001215931
  H        -0.0004812862        0.0007149626        0.0004257306
  O         0.0001450279       -0.0000356730        0.0004210324
  H        -0.0008515515        0.0000226184       -0.0002955517
  H         0.0011984472        0.0000284538       -0.0004069255
  H        -0.0021517426       -0.0001946073        0.0001638802
  O        -0.0001822555        0.0001461217       -0.0001147084
  H         0.0012085388        0.0007979744        0.0010673971
  H         0.0004535768       -0.0011925219        0.0004186613
  O         0.0000970270       -0.0000005692        0.0000160404
  H        -0.0012798014       -0.0001736016        0.0005174342
  H        -0.0009675704        0.0000371482       -0.0002670459
  O         0.0000097688        0.0002402673        0.0001932233
  H        -0.0005018361        0.0004756987        0.0008345951
  H         0.0016538293        0.0008972103        0.0009856806
  O         0.0000957948       -0.0001987897       -0.0001347214
  H         0.0015284669        0.0005641904       -0.0004934708
  H        -0.0009432947       -0.0008592125        0.0001619819
  O        -0.0003132176        0.0001505628       -0.0000815229
  H        -0.0003327142        0.0014100847        0.0004505500
  H         0.0000553976       -0.0002346618       -0.0000028096
  O        -0.0002666710       -0.0000244242        0.0000359945
  H         0.0001821340        0.0001035841       -0.0012311650
  H        -0.0003674901       -0.0008438987       -0.0004091030
  O        -0.0000821360       -0.0001069134       -0.0000722090
  H         0.0002485151       -0.0004967488       -0.0000444370
  H        -0.0012683499       -0.0013055932       -0.0000320789
  O        -0.0000258607       -0.0001169279       -0.0001857653
  H         0.0005168994        0.0002014591       -0.0015893877
  H         0.0004131116        0.0011568918        0.0000223829
  O        -0.0002775133       -0.0000653117       -0.0000673973
  H         0.0005421031       -0.0003931234        0.0002813422
  H         0.0004884480       -0.0000474373       -0.0000127566
  O         0.0002526639       -0.0002164732        0.0002345853
  H         0.0004556474        0.0016523866        0.0008212582
  H         0.0000896386        0.0000865786        0.0002013264
  O        -0.0002806963       -0.0000714139       -0.0003297108
  H        -0.0006207208       -0.0007489362       -0.0001422725
  H         0.0010128967       -0.0001683685       -0.0004044727
  O         0.0003831540       -0.0001076638        0.0002724112
  H         0.0002103035       -0.0001021579        0.0011168540
  H         0.0002848887       -0.0003642505       -0.0002707827
  O        -0.0000708411        0.0001218739        0.0002213024
  H         0.0004208112       -0.0008658278        0.0001282400
  H        -0.0001122092        0.0001349159       -0.0002748701
  O         0.0002264250       -0.0001757961        0.0001631182
  H        -0.0007065047        0.0007219109       -0.0010597260
  H         0.0001240915       -0.0006702377        0.0010684221
  O        -0.0001202452        0.0001345994        0.0002547141
  H         0.0010090074        0.0005607123        0.0012894648
  H         0.0004385251        0.0001806735        0.0001630638
  O         0.0002243010        0.0000429639       -0.0004567335
  H         0.0006074892        0.0007379312        0.0017857697
  H        -0.0000333061       -0.0007402314       -0.0003894695
  O         0.0001481639       -0.0003653659        0.0001363620
  H        -0.0004835481        0.0011113921       -0.0006137740
  H        -0.0006439045       -0.0004873341       -0.0003508094
  O        -0.0001305009       -0.0003804846       -0.0000683063
  H        -0.0007379268       -0.0011750379        0.0014683898
  H        -0.0004447619        0.0000574925       -0.0011331490
  O         0.0001000017       -0.0000775933       -0.0002279483
  H         0.0001735112        0.0016053873       -0.0004164473
  H        -0.0003724052        0.0006678212        0.0015448256
  O        -0.0003584100        0.0000644182       -0.0001918902
  H        -0.0000898404       -0.0013896105       -0.0000153904
  H        -0.0004584730        0.0009127535        0.0006885220
  O        -0.0001780425       -0.0000961146       -0.0000997641
  H        -0.0002834964        0.0003742508        0.0007793821
  H        -0.0000687191        0.0012357013       -0.0001088225
  O         0.0001913021       -0.0001733023        0.0001245174
  H         0.0013561057        0.0008710704       -0.0008127517
  H        -0.0001824366        0.0004487030       -0.0001903422
  O        -0.0001067594       -0.0000220153       -0.0002046346
  H         0.0004029596        0.0001165842        0.0000717603
  H        -0.0002611396        0.0000131978       -0.0015322626
  O        -0.0000419725        0.0001141319       -0.0001830370
  H        -0.0007977692        0.0001602971        0.0010623480
  H         0.0003178954        0.0001764629       -0.0001574097
  O         0.0001805095        0.0000795977       -0.0002868429
  H         0.0003392115        0.0005511339       -0.0006784040
  H        -0.0000280533        0.0004684697        0.0000125271
  O         0.0000232043       -0.0002020888        0.0000423458
  H        -0.0008410576       -0.0006798822       -0.0003256832
  H         0.0008845853       -0.0006333962       -0.0002842153
  O         0.0000760237       -0.0002341010       -0.0000694192
  H         0.0003428657       -0.0002978456       -0.0000603205
  H         0.0022019622        0.0007381186        0.0000449530
  O        -0.0003101839        0.0000856575        0.0002945685
  H         0.0008055660       -0.0016301143        0.0011071976
  H        -0.0012309724        0.0007870486       -0.0001137582
  O        -0.0000079217       -0.0000084865        0.0001612616
  H         0.0009731481       -0.0003709762        0.0009058209
  H         0.0008745334       -0.0010534693       -0.0003765493
  O         0.0003049769        0.0002544912        0.0001571675
  H        -0.0021313331       -0.0005406343       -0.0000025723
  H         0.0003344932       -0.0001858918        0.0007804312
  O        -0.0004188819        0.0002010176       -0.0004232811
  H         0.0006653067       -0.0001549542       -0.0011091767
  H         0.0000272114       -0.0008183581       -0.0002559368
  O         0.0001667932        0.0001506053        0.0000542669
  H        -0.0000077313        0.0005332985       -0.0013172230
  H         0.0011442189       -0.0007155882        0.0002650858
  O         0.0001055483       -0.0001177282        0.0001286140
  H        -0.0000582693       -0.0007853549        0.0003572758
  H         0.0001251412       -0.0007717014       -0.0001339874
  O         0.0001153032        0.0003422262       -0.0001325489
  H        -0.0006247475        0.0002022417       -0.0004644582
  H         0.0009488085       -0.0003806612        0.0009425925
  O        -0.0001660672       -0.0002982277       -0.0002153612
  H         0.0003995088       -0.0002488514        0.0001771160
  H         0.0008855779       -0.0011615937       -0.0008164776
  O        -0.0000697099       -0.0002430259        0.0001408499
  H        -0.0008266475        0.0011272105        0.0001381913
  H        -0.0000577275       -0.0002862232       -0.0000070623
  O         0.0004134541        0.0001927150       -0.0002065705
  H        -0.0002342090        0.0008044103        0.0007663861
  H        -0.0001633603        0.0001549657       -0.0001334903
  O        -0.0001699144       -0.0001216010        0.0001914359
  H        -0.0001339817        0.0004982129       -0.0000171095
  H         0.0004601852        0.0012090909        0.0001326553
  O         0.0000016723        0.0000341591        0.0000588086
  H         0.0013277974        0.0005362517        0.0006852476
  H         0.0005046016        0.0001621376        0.0016686916
  O        -0.0000231329        0.0000714660       -0.0000887667
  H         0.0013606583        0.0004150858        0.0000454709
  H         0.0005902833       -0.0001411461       -0.0008610519
  O        -0.0002781902       -0.0001197487       -0.0001312532
  H        -0.0006510123        0.0000615404       -0.0002774475
  H         0.0000499611        0.0001147284        0.0002884646
  O        -0.0002916250       -0.0001662708       -0.0001373744
  H         0.0004886752       -0.0003290169        0.0007930672
  H         0.0001132109       -0.0005015480       -0.0001188273
  O         0.0002115110        0.0002983487       -0.0004062578
  H         0.0008496393        0.0005340980        0.0001760851
  H        -0.0003641495       -0.0007751571       -0.0001955823
  O        -0.0002069717       -0.0002924117       -0.0000976737
  H        -0.0003991536       -0.0009497517        0.0013629910
  H        -0.0003646228       -0.0016225097        0.0010596841
  O         0.0000278042        0.0002614297       -0.0001523305
  H        -0.0005170220       -0.0010615403       -0.0000068599
  H         0.0000653268       -0.0020024737       -0.0002205735
  O         0.0001300246       -0.0002169867        0.0000374950
  H         0.0018903892        0.0000415489        0.0006949453
  H        -0.0004563105        0.0007012570        0.0009032288
  O         0.0000268064        0.0001350003       -0.0001549156
  H        -0.0008163694        0.0007516916        0.0004442563
  H        -0.0010172175       -0.0001431081       -0.0008267366
  O        -0.0002191756       -0.0002287974       -0.0002765999
  H         0.0009381632       -0.0000141325       -0.0000261890
  H         0.0001279679       -0.0001013897        0.0001630004
  O        -0.0000705266        0.0000160873       -0.0002249225
  H        -0.0008712716       -0.0005701033        0.0000068413
  H         0.0003492353       -0.0004223538       -0.0008642378
  O        -0.0002696233       -0.0000036216        0.0002463729
  H        -0.0003823069        0.0021730392       -0.0000748476
  H        -0.0001396265       -0.0003745666        0.0007987217
  O         0.0002907945        0.0001600349       -0.0001997425
  H        -0.0007935722       -0.0012657136       -0.0000850302
  H         0.0016160594        0.0002190349        0.0010572732
  O         0.0000460410        0.0001921203        0.0000174714
  H        -0.0005718073        0.0006483551       -0.0008060008
  H        -0.0003614969        0.0006245623        0.0002316795
  O        -0.0001190309        0.0001284737       -0.0001271289
  H         0.0009393536       -0.0000037401       -0.0002270958
  H         0.0002814097        0.0000888784       -0.0002421450
  O        -0.0002992162       -0.0001620928       -0.0000819455
  H         0.0003645490        0.0003342267       -0.0003680372
  H        -0.0006866819        0.0009493790        0.0003028208
  O         0.0007905348       -0.0002078856       -0.0000341851
  H         0.0011224373       -0.0005555986        0.0010555004
  H         0.0009618030        0.0004756936        0.0002911094
  O        -0.0000259878        0.0000352370        0.0002242155
  H         0.0010633115        0.0010759331       -0.0009479042
  H        -0.0002281045        0.0008639940        0.0000394929
  O        -0.0001754141        0.0000268080        0.0001142777
  H         0.0002539217        0.0006328236       -0.0018390227
  H        -0.0017056107        0.0002329638        0.0013345891
  O        -0.0000429549       -0.0000051417       -0.0002496938
  H         0.0014386748        0.0003930411       -0.0005646402
  H         0.0000321923       -0.0017453411        0.0012218615
  O         0.0001601214       -0.0000220979        0.0004679044
  H        -0.0002224602        0.0003809743       -0.0005977093
  H         0.0001555589       -0.0012303995       -0.0009136627
  O         0.0001974210       -0.0000939834        0.0003399082
  H        -0.0009151600        0.0000265367       -0.0021916444
  H        -0.0018737017        0.0002898274       -0.0000882431
  O        -0.0002728945       -0.0002935335        0.0002058930
  H         0.0000863003       -0.0014837755        0.0015373406
  H        -0.0000690103       -0.0005606458        0.0002623120
  O         0.0000139567        0.0002478069        0.0001735205
  H        -0.0010625989       -0.0001486310       -0.0007801056
  H         0.0014423847        0.0003503924       -0.0008415343
  O        -0.0002732053        0.0002263571        0.0001770330
  H        -0.0003133967       -0.0004771704       -0.0011900258
  H        -0.0007050123        0.0001330985       -0.0002792787
  O        -0.0000563510       -0.0001873587        0.0001066063
  H         0.0001000354        0.0006808655       -0.0004557268
  H         0.0001456905       -0.0007502741        0.0007538060
  O        -0.0001413331        0.0002453135        0.0000595976
  H         0.0004647988        0.0005429351       -0.0001173812
  H        -0.0010527233        0.0010589242        0.0001584530
  O        -0.0000198102        0.0000518218       -0.0001148277
  H         0.0009794695       -0.0002785081       -0.0010814275
  H        -0.0006048500        0.0000745234       -0.0005128882
  O         0.0003513791        0.0000160833        0.0001604659
  H        -0.0005422323        0.0004098170        0.0010940101
  H         0.0001838742        0.0000065533        0.0005882843
  O         0.0001879417       -0.0001519873        0.0001644734
  H         0.0000411704        0.0003786405       -0.0006655234
  H        -0.0003260945        0.0002353192        0.0003885622
  O        -0.0004006057       -0.0000101679        0.0000445128
  H         0.0015340225       -0.0004206069       -0.0004089981
  H        -0.0003923256       -0.0004569727       -0.0006577496
  O        -0.0000198770       -0.0001435527       -0.0000298303
  H        -0.0003218779        0.0005414296       -0.0000795295
  H         0.0003362427        0.0004215731        0.0001910330
  O         0.0002742522       -0.0001007502       -0.0000376721
  H         0.0009095539       -0.0001021550        0.0005426432
  H        -0.0001281771       -0.0004991644        0.0011321023
  O         0.0002083594       -0.0000037704       -0.0001569402
  H         0.0014933321       -0.0007786195        0.0006272131
  H         0.0005693350        0.0006281251        0.0002031706
  O        -0.0002257952        0.0001807366       -0.0000183710
  H        -0.0008371112        0.0002206819       -0.0003812346
  H         0.0002388395       -0.0001632156        0.0003356368
  O        -0.0001828118       -0.0000282421       -0.0002803178
  H        -0.0011009868        0.0008174610        0.0000113117
  H        -0.0000217587        0.0006362505        0.0000038781
  O         0.0000559331       -0.0000414955       -0.0000894191
  H        -0.0009041758        0.0003801808       -0.0000140437
  H        -0.0009854652       -0.0015375204       -0.0009815630
  O         0.0001146029       -0.0003444117        0.0000511969
  H        -0.0006253769       -0.0003073514        0.0005961692
  H         0.0001652071        0.0005044983        0.0013516989
  O         0.0003312442        0.0000656258       -0.0001481901
  H        -0.0001908203       -0.0005059026        0.0012940016
  H         0.0001513453        0.0011081546        0.0002750771
  O         0.0000135085        0.0002243768        0.0000672083
  H        -0.0002531022        0.0003936132        0.0016040963
  H         0.0000916762        0.0004406387       -0.0000488776
  O        -0.0000619454       -0.0001615189       -0.0001178400
  H         0.0011792533       -0.0005268667       -0.0015917000
  H         0.0013411770        0.0004397665        0.0002889766
  O        -0.0000566489       -0.0001256252        0.0000432556
  H         0.0002912567        0.0005125916        0.0009752406
  H         0.0005515811        0.0002298931       -0.0002383318
  O        -0.0001559077        0.0001194417        0.0002946845
  H         0.0008726376       -0.0004595810       -0.0009273504
  H        -0.0005407533        0.0014442601       -0.0003057175
  O        -0.0001756036        0.0002401989       -0.0001528328
  H        -0.0016176217       -0.0008295517       -0.0001344831
  H        -0.0000687326       -0.0005027214       -0.0003374182
  O         0.0000707503       -0.0001157467       -0.0002225128
  H        -0.0003743907        0.0000617830        0.0000720562
  H         0.0009344568       -0.0012165926        0.0001301406
  O        -0.0000768111        0.0004034614        0.0001797994
  H        -0.0001734473       -0.0004054464        0.0011668464
  H        -0.0001900732       -0.0002903683       -0.0008870338
  O        -0.0002497151        0.0000962538       -0.0000268118
  H         0.0000368873       -0.0004307425       -0.0004174018
  H         0.0011533570       -0.0004189759        0.0010333624
  O         0.0000807138       -0.0001197313       -0.0001414321
  H         0.0007975808       -0.0004283860        0.0008136357
  H        -0.0007976003       -0.0004045344       -0.0002161867
  O        -0.0001860141       -0.0000356688       -0.0000444753
  H         0.0007459152       -0.0006360917       -0.0004460115
  H         0.0000850570        0.0009617469       -0.0001754965
  O        -0.0000622745       -0.0001922799       -0.0000607966
  H        -0.0009624230       -0.0002568399       -0.0013807248
  H        -0.0006683110       -0.0009339754       -0.0007355180
  O         0.0000311058        0.0001271499        0.0000279958
  H        -0.0012928118       -0.0000784785       -0.0003352777
  H         0.0021757272       -0.0004942771       -0.0004033307
  O        -0.0000825116        0.0000899392       -0.0000144673
  H         0.0020787715        0.0003694568        0.0012082551
  H        -0.0012236191       -0.0005621996       -0.0004456468
  O        -0.0002666555        0.0003660662        0.0001431875
  H        -0.0009612940        0.0005167880       -0.0013538893
  H        -0.0003255889       -0.0000880523        0.0003179678
  O        -0.0000722653        0.0002077801        0.0000658957
  H        -0.0007171003       -0.0006728732       -0.0000788291
  H         0.0001135257       -0.0001854327        0.0005523788
  O         0.0000809962        0.0000407152        0.0000132169
  H         0.0007575138        0.0004017869       -0.0012051116
  H         0.0000845275        0.0010629002       -0.0001233708
  O         0.0001722394       -0.0000424038        0.0002026607
  H        -0.0007867783       -0.0011367681        0.0003067786
  H        -0.0002172829       -0.0004335062       -0.0002906164
  O         0.0000705970        0.0000586419       -0.0000596062
  H        -0.0011862146       -0.0012632886       -0.0001554347
  H         0.0000983778       -0.0007539699       -0.0017713385
  O         0.0000507236       -0.0000046412        0.0000305060
  H        -0.0005728654       -0.0003573462       -0.0005146838
  H        -0.0001495626        0.0008632019        0.0008946060
  O        -0.0000690324        0.0001625503        0.0001737259
  H         0.0000659515       -0.0000382577        0.0002820447
  H         0.0001075259        0.0002910287       -0.0003217508
  O         0.0001514361       -0.0000676589        0.0000991742
  H         0.0005401948       -0.0004015717        0.0002105119
  H         0.0012183940        0.0015497194       -0.0000805504
  O        -0.0002029553        0.0001130785       -0.0000557662
  H        -0.0004389133       -0.0005008232       -0.0016428495
  H        -0.0003678073        0.0000949323       -0.0009943988
  O         0.0000089943        0.0002676435       -0.0003568265
  H        -0.0017604078        0.0006245390       -0.0002164469
  H         0.0003995432       -0.0002942390       -0.0001529651
  O        -0.0003185533       -0.0000419087        0.0003068363
  H        -0.0003549347       -0.0008431440       -0.0005377259
  H         0.0016055890        0.0002105322        0.0005012182
  O        -0.0001720360        0.0001908786        0.0000082045
  H        -0.0006089939        0.0012492697        0.0011959049
  H        -0.0000705773       -0.0008192325        0.0014440510
  O        -0.0003010786       -0.0000341212        0.0000351037
  H        -0.0003632934       -0.0003636200       -0.0007550338
  H         0.0007561418       -0.0003402988       -0.0004194232
  O         0.0002646652        0.0001229925        0.0003617881
  H         0.0005869115       -0.0003701528       -0.0000443631
  H        -0.0003496936       -0.0009777778        0.0005167871
  O         0.0000783160       -0.0000566450        0.0001964934
  H        -0.0009202569       -0.0005716118       -0.0018495694
  H         0.0001396015       -0.0003587901        0.0011375803
  O         0.0000110735       -0.0001657962       -0.0000136542
  H        -0.0007027961        0.0004299592        0.0006613438
  H         0.0004885775       -0.0001544333       -0.0000326345
  O        -0.0001857775       -0.0000160004        0.0000024894
  H        -0.0008856980       -0.0012111198       -0.0020205079
  H         0.0008327426        0.0007148063        0.0001960683
  O         0.0000029547       -0.0003399293       -0.0002930405
  H        -0.0014755252       -0.0010182648        0.0004679594
  H         0.0000789186        0.0010563819        0.0000273766
  O         0.0002751910       -0.0000810870        0.0000683968
  H        -0.0008602256       -0.0019733236       -0.0007085593
  H        -0.0001313287        0.0000782501        0.0007432580
  O         0.0002193356        0.0001284514       -0.0001964865
  H         0.0018316250       -0.0012020741        0.0006168379
  H        -0.0005824895        0.0003315815       -0.0008624955
  O         0.0000292723       -0.0001125129       -0.0004348697
  H        -0.0005313617        0.0001140123        0.0003081920
  H         0.0001391866       -0.0011469053        0.0009899667
  O        -0.0001769849        0.0001351324        0.0001708835
  H        -0.0003264926       -0.0007696968        0.0010385583
  H        -0.0008551292       -0.0008299395        0.0009165064
  O        -0.0002034988        0.0001501136        0.0003266682
  H         0.0010679232       -0.0012619646        0.0002396342
  H        -0.0010401055        0.0003589556       -0.0004675352
  O        -0.0000822747        0.0000828414       -0.0001972929
  H         0.0013218936        0.0002027534        0.0017489733
  H        -0.0009708475       -0.0008093740       -0.0000724479
  O         0.0000928879        0.0004566105       -0.0001728123
  H        -0.0003715574        0.0014767033        0.0003809471
  H         0.0002582664        0.0007323922        0.0015697650
  O        -0.0002307628       -0.0001609552       -0.0000769438
  H        -0.0004625898        0.0003502411        0.0004889351
  H        -0.0011390283       -0.0001750769        0.0009553080
  O         0.0002642291       -0.0000149499       -0.0001508059
  H        -0.0015752076        0.0003877901       -0.0004475854
  H        -0.0017874988       -0.0000152611        0.0003244582
  O         0.0000238293        0.0001154784       -0.0000863964
  H        -0.0008786853        0.0004439825        0.0001326173
  H        -0.0000260580       -0.0007363207        0.0008756183
  O         0.0003121511        0.0001896174        0.0001388782
  H         0.0001878443       -0.0008113886        0.0006702578
  H         0.0010376635       -0.0001566689       -0.0004668385
  O         0.0001412032        0.0001033309       -0.0002521159
  H         0.0001092390        0.0006542972       -0.0003660211
  H        -0.0009816544        0.0001765887        0.0013225627
  O        -0.0001696785       -0.0000337771        0.0001436615
  H        -0.0001293528       -0.0010306717       -0.0002985007
  H         0.0003895556       -0.0001348778       -0.0002640084
  O         0.0001690850        0.0000490357        0.0001503557
  H        -0.0003486416       -0.0014907293       -0.0000331887
  H         0.0003054949        0.0001289419        0.0005489590
  O        -0.0001213741        0.0000928951       -0.0001064776
  H         0.0014832119        0.0004926675        0.0005717069
  H        -0.0009950760        0.0011980836        0.0015904006
     393
 i =        1, time =        0.500, E =     -2253.9633890412
  C         0.0003442705       -0.0002844893       -0.0000511872
  C         0.0001105826       -0.0001088798       -0.0001202221
  C        -0.0000803896       -0.0002118106       -0.0001754571
  O         0.0003388556       -0.0003081100        0.0001491500
  O         0.0003174834       -0.0001224502        0.0000638511
  H         0.0007857270       -0.0006796751        0.0010504104
  H         0.0000881233       -0.0008123192        0.0005489848
  H        -0.0009143256       -0.0010280548       -0.0002818113
  H        -0.0007910699        0.0008286071       -0.0003716252
  O         0.0000617007        0.0002796255       -0.0000834364
  H        -0.0001638531        0.0011934068       -0.0004604575
  C         0.0002434661        0.0000500789        0.0002525394
  C        -0.0000736485        0.0000801695       -0.0002348092
  C        -0.0001346285        0.0000511803        0.0002850768
  O         0.0000102796        0.0003352260        0.0000280884
  O         0.0004481279        0.0001655417        0.0000498907
  H         0.0005721154       -0.0009549920        0.0011315458
  H        -0.0001445622        0.0003322273        0.0001819817
  H         0.0006990203       -0.0000291645       -0.0003197860
  H        -0.0004125116        0.0006908683        0.0006380974
  O         0.0001268191       -0.0000312162        0.0004235374
  H        -0.0002384458        0.0001410940       -0.0003542510
  H         0.0015420310       -0.0001933950       -0.0001832361
  H        -0.0020731084       -0.0002796795        0.0000953839
  O        -0.0001580592        0.0000630570       -0.0000887706
  H         0.0012463714        0.0007262606        0.0012336108
  H         0.0002404301       -0.0007431681        0.0005730049
  O        -0.0000110172        0.0000512301        0.0000399728
  H        -0.0009407122       -0.0001079125        0.0002590061
  H        -0.0008142668        0.0005575140       -0.0001342452
  O        -0.0000300917        0.0002236862        0.0001367496
  H         0.0000695213        0.0003142775        0.0008189132
  H         0.0016064937        0.0006369655        0.0008152075
  O         0.0000738188       -0.0001997701       -0.0000676323
  H         0.0014511515        0.0004330990       -0.0009434611
  H        -0.0007540100       -0.0010111855        0.0004820220
  O        -0.0002266000        0.0001397765       -0.0001241303
  H        -0.0001285774        0.0012420757        0.0004514593
  H        -0.0002318367        0.0001670702        0.0001080365
  O        -0.0002462565        0.0000454694       -0.0000323393
  H         0.0006216735        0.0001816983       -0.0009855389
  H        -0.0006453436       -0.0008817991       -0.0001463190
  O        -0.0000488896       -0.0001054281       -0.0000118472
  H        -0.0001218083       -0.0000851853       -0.0000645253
  H        -0.0012607441       -0.0010579947        0.0001662723
  O        -0.0000314932       -0.0001281535       -0.0001163669
  H         0.0008564813        0.0003496215       -0.0013423709
  H         0.0001834085        0.0014378284       -0.0000557403
  O        -0.0003087420       -0.0000622602       -0.0000512884
  H         0.0007066344       -0.0002553787        0.0004903634
  H         0.0004878506       -0.0000309030       -0.0002978644
  O         0.0002692262       -0.0002159553        0.0002688391
  H         0.0004636736        0.0014770836        0.0008177983
  H        -0.0000774858       -0.0000989354        0.0001013840
  O        -0.0002450212       -0.0000227719       -0.0002875321
  H        -0.0008205015       -0.0004940617       -0.0000949464
  H         0.0011575877       -0.0002849609       -0.0003695934
  O         0.0003746730       -0.0000504292        0.0003296424
  H         0.0000209621       -0.0002549272        0.0004615275
  H         0.0001399993       -0.0002192737        0.0001106090
  O        -0.0000574134        0.0001347136        0.0002997632
  H         0.0008083173       -0.0007272262        0.0001830275
  H        -0.0000713131        0.0003535047       -0.0003389660
  O         0.0002459582       -0.0001099233        0.0001326741
  H        -0.0005229384        0.0002126717       -0.0009993286
  H        -0.0002402920       -0.0008598375        0.0011393532